/*--------------------------------*- C++ -*----------------------------------*\
| =========                 |                                                 |
| \\      /  F ield         | OpenFOAM: The Open Source CFD Toolbox           |
|  \\    /   O peration     | Version:  v2006                                 |
|   \\  /    A nd           | Website:  www.openfoam.com                      |
|    \\/     M anipulation  |                                                 |
\*---------------------------------------------------------------------------*/
FoamFile
{
    version     2.0;
    format      ascii;
    class       volScalarField;
    location    "40";
    object      p;
}
// * * * * * * * * * * * * * * * * * * * * * * * * * * * * * * * * * * * * * //

dimensions      [0 2 -2 0 0 0 0];


internalField   nonuniform List<scalar> 
62212
(
0.160592
0.163566
0.164472
0.165224
0.165827
0.166308
0.16667
0.167189
0.167867
0.168438
0.168906
0.169541
0.170335
0.170972
0.171745
0.172608
0.173545
0.174546
0.175597
0.176678
0.177724
0.17898
0.180395
0.182003
0.183543
0.185026
0.18674
0.188772
0.190635
0.192455
0.194333
0.196405
0.198484
0.200575
0.20268
0.204649
0.206743
0.209272
0.210961
0.161376
0.163772
0.164509
0.165271
0.165869
0.166359
0.166793
0.167314
0.167925
0.168497
0.169034
0.169673
0.170409
0.171105
0.171885
0.172747
0.173681
0.174678
0.175728
0.17682
0.177938
0.179204
0.180612
0.182157
0.183709
0.185276
0.187002
0.188928
0.190813
0.192706
0.194631
0.196673
0.19878
0.200874
0.203005
0.205195
0.207156
0.208873
0.210276
0.162075
0.163958
0.164564
0.165329
0.165925
0.16643
0.166907
0.167431
0.168011
0.168586
0.169161
0.169805
0.17052
0.171245
0.172036
0.172901
0.173834
0.174832
0.175887
0.176993
0.178154
0.179433
0.180837
0.182352
0.183916
0.185534
0.18726
0.189154
0.191049
0.192979
0.194973
0.196996
0.199134
0.201424
0.203535
0.205651
0.207592
0.208939
0.210351
0.162746
0.164149
0.164632
0.165393
0.165985
0.166506
0.167009
0.167537
0.168103
0.168682
0.169279
0.169929
0.170638
0.17138
0.172182
0.173051
0.173987
0.174987
0.176048
0.177169
0.178358
0.179649
0.181052
0.182555
0.184128
0.185776
0.187518
0.189391
0.191312
0.193256
0.195313
0.197445
0.19957
0.201835
0.203993
0.205888
0.207758
0.209386
0.210858
0.163434
0.164375
0.164721
0.165468
0.166045
0.166579
0.167097
0.167629
0.16819
0.168773
0.169383
0.17004
0.170749
0.171502
0.172312
0.173186
0.174124
0.17513
0.176197
0.177331
0.178537
0.179838
0.181241
0.182741
0.184317
0.185982
0.18774
0.189596
0.191542
0.193529
0.195589
0.197767
0.199901
0.202003
0.20417
0.206226
0.208062
0.209477
0.210596
0.16415
0.164653
0.164849
0.165563
0.16611
0.166647
0.167173
0.167705
0.168265
0.168852
0.16947
0.170132
0.170843
0.171603
0.172419
0.173298
0.174239
0.175248
0.176321
0.177462
0.178679
0.179987
0.181391
0.182889
0.184468
0.186136
0.187908
0.189761
0.191704
0.193723
0.195771
0.197912
0.200071
0.202179
0.204318
0.20638
0.208132
0.209461
0.210533
0.16486
0.164986
0.165031
0.16569
0.166185
0.166712
0.167236
0.167767
0.168326
0.168916
0.169538
0.170203
0.170916
0.171679
0.172499
0.17338
0.174324
0.175332
0.176408
0.177553
0.178776
0.180086
0.181489
0.182982
0.184562
0.186225
0.187999
0.189855
0.191777
0.193792
0.195824
0.197927
0.200137
0.202295
0.204371
0.206304
0.207923
0.209412
0.210832
0.165489
0.165355
0.165273
0.165854
0.166278
0.166781
0.167293
0.167821
0.168379
0.168968
0.169592
0.170258
0.170971
0.171736
0.172557
0.173439
0.174382
0.17539
0.176465
0.177613
0.178836
0.180145
0.181545
0.183031
0.18461
0.186266
0.188023
0.189881
0.191773
0.193762
0.195829
0.197919
0.200155
0.20233
0.204211
0.205963
0.207716
0.209447
0.210673
0.165962
0.165728
0.165559
0.166051
0.16639
0.166858
0.16735
0.167871
0.168426
0.169013
0.169636
0.170301
0.171014
0.171779
0.1726
0.17348
0.174421
0.175427
0.176501
0.177648
0.17887
0.180174
0.181571
0.183049
0.184618
0.186271
0.187999
0.189851
0.191762
0.193728
0.195826
0.197912
0.199986
0.202063
0.203984
0.205789
0.207603
0.20925
0.210273
0.166256
0.166076
0.165869
0.166269
0.166519
0.166947
0.167413
0.167923
0.168472
0.169055
0.169675
0.170338
0.17105
0.171814
0.172633
0.173511
0.174449
0.175454
0.176526
0.177669
0.17889
0.180187
0.181574
0.18305
0.184603
0.186255
0.18798
0.189808
0.19175
0.1937
0.195711
0.197754
0.199763
0.201844
0.203959
0.205909
0.207553
0.208805
0.209578
0.166393
0.166365
0.166173
0.166489
0.166657
0.167046
0.167486
0.16798
0.168519
0.169096
0.169713
0.170373
0.171084
0.171846
0.172664
0.173539
0.174476
0.175477
0.176547
0.177686
0.178905
0.180199
0.181576
0.183051
0.184602
0.186245
0.187977
0.189779
0.191696
0.193647
0.19562
0.197675
0.199776
0.201935
0.204015
0.20586
0.207364
0.208521
0.209397
0.166422
0.16658
0.166441
0.166695
0.166797
0.167154
0.167566
0.168042
0.168568
0.169138
0.169752
0.170411
0.17112
0.171881
0.172698
0.173572
0.174507
0.175507
0.176576
0.177714
0.17893
0.180226
0.181597
0.183067
0.184624
0.186255
0.187982
0.189776
0.191674
0.193656
0.195667
0.197757
0.199848
0.201922
0.203902
0.205699
0.20733
0.20876
0.209815
0.16639
0.166711
0.166652
0.166875
0.166931
0.167263
0.16765
0.168105
0.168617
0.169177
0.169786
0.170442
0.171149
0.17191
0.172725
0.173598
0.174533
0.175531
0.176599
0.177738
0.17895
0.18025
0.181621
0.183079
0.184643
0.186272
0.187992
0.189797
0.191685
0.193694
0.195722
0.197779
0.199846
0.201857
0.203857
0.205785
0.207576
0.208967
0.209613
0.166321
0.166754
0.166784
0.167014
0.167046
0.167363
0.167729
0.168166
0.168662
0.169211
0.169812
0.170465
0.171169
0.171927
0.17274
0.173612
0.174545
0.175541
0.176607
0.177748
0.178958
0.180253
0.181629
0.183075
0.184632
0.186274
0.187983
0.189795
0.191678
0.193665
0.195713
0.197743
0.199797
0.201862
0.203902
0.205819
0.207465
0.208675
0.209349
0.166238
0.166719
0.166827
0.167099
0.167133
0.167449
0.167798
0.168219
0.168699
0.169237
0.169829
0.170477
0.171178
0.171931
0.172741
0.173611
0.174543
0.175537
0.176598
0.177737
0.178946
0.180231
0.18161
0.183053
0.184589
0.18624
0.18795
0.18974
0.191624
0.193575
0.195602
0.197658
0.199718
0.201796
0.203827
0.205599
0.207071
0.208222
0.208979
0.166171
0.16663
0.166787
0.167121
0.167182
0.16751
0.167846
0.168253
0.168717
0.169246
0.169828
0.17047
0.171165
0.171912
0.172717
0.173582
0.174508
0.175497
0.176551
0.177681
0.178889
0.180162
0.181528
0.182975
0.184487
0.186118
0.187836
0.1896
0.191452
0.193392
0.195401
0.197467
0.199552
0.201568
0.203474
0.205164
0.206559
0.207799
0.208665
0.166157
0.166524
0.166687
0.167087
0.16719
0.16754
0.167867
0.168262
0.168715
0.169232
0.169806
0.170438
0.171126
0.171866
0.172663
0.17352
0.174437
0.17542
0.176465
0.177579
0.178778
0.180043
0.181384
0.182824
0.184323
0.185913
0.187617
0.189374
0.191193
0.193109
0.1951
0.197122
0.19912
0.201048
0.202868
0.204567
0.206067
0.207277
0.208169
0.166217
0.166446
0.166564
0.167011
0.167157
0.167535
0.167854
0.168242
0.168688
0.169197
0.169764
0.170386
0.171065
0.171798
0.172585
0.173432
0.174339
0.175311
0.176348
0.177447
0.178627
0.179885
0.181205
0.18262
0.184112
0.185665
0.187332
0.189084
0.190879
0.192747
0.194667
0.196608
0.198552
0.200457
0.20234
0.204096
0.205605
0.206838
0.207519
0.166345
0.166437
0.166475
0.166926
0.167094
0.167498
0.167809
0.168192
0.168635
0.169138
0.169697
0.17031
0.170978
0.171703
0.17248
0.173315
0.174211
0.175171
0.176199
0.177285
0.178441
0.179685
0.180991
0.182374
0.183849
0.185384
0.187004
0.188727
0.190495
0.192307
0.194182
0.196069
0.198009
0.199953
0.201803
0.203519
0.204944
0.206002
0.206717
0.166496
0.166504
0.166455
0.166863
0.16702
0.167436
0.167736
0.168118
0.168557
0.169053
0.169604
0.170207
0.170863
0.171579
0.172346
0.173167
0.174053
0.175001
0.176015
0.177091
0.178225
0.179446
0.180742
0.182098
0.183544
0.185062
0.186644
0.188319
0.190066
0.191853
0.193711
0.195598
0.19748
0.199383
0.201196
0.202819
0.204252
0.20537
0.206072
0.166613
0.166613
0.166509
0.166841
0.166956
0.167366
0.167648
0.16803
0.168467
0.168955
0.169497
0.170091
0.170736
0.17144
0.172199
0.173009
0.173882
0.17482
0.175819
0.176885
0.178004
0.179199
0.180481
0.181821
0.183235
0.184733
0.186295
0.187935
0.189657
0.191439
0.193276
0.195138
0.196969
0.198773
0.20055
0.202205
0.203613
0.204824
0.205529
0.166635
0.166696
0.1666
0.166862
0.166921
0.167304
0.16756
0.167941
0.168371
0.168851
0.169382
0.169966
0.1706
0.171291
0.172042
0.172843
0.173704
0.17463
0.175614
0.176667
0.177778
0.178951
0.180214
0.181544
0.182936
0.184413
0.185959
0.187579
0.189275
0.19103
0.192842
0.194677
0.196478
0.198264
0.200015
0.201696
0.203124
0.204116
0.204607
0.166523
0.166679
0.166656
0.166891
0.166907
0.167255
0.167478
0.167857
0.168275
0.168742
0.169261
0.169833
0.170456
0.171132
0.171871
0.172665
0.173511
0.174423
0.175392
0.176427
0.177532
0.178688
0.179923
0.18124
0.182617
0.184072
0.1856
0.187196
0.188866
0.19059
0.192365
0.194197
0.196017
0.197782
0.199492
0.201036
0.202322
0.203301
0.203879
0.166285
0.166524
0.166601
0.166867
0.166883
0.167212
0.167405
0.167786
0.168184
0.168638
0.169142
0.169702
0.170315
0.170978
0.171701
0.172488
0.173322
0.174215
0.175172
0.176188
0.17728
0.178427
0.179635
0.18093
0.182293
0.183723
0.185228
0.186794
0.188429
0.190129
0.191876
0.19367
0.195479
0.197211
0.198798
0.200255
0.20148
0.202386
0.202853
0.166002
0.166258
0.166401
0.166744
0.166811
0.167153
0.167329
0.167713
0.168098
0.168537
0.169028
0.169573
0.170177
0.17083
0.171538
0.172312
0.173138
0.174013
0.174955
0.175956
0.177029
0.178167
0.179354
0.180619
0.181963
0.183369
0.184844
0.186387
0.187987
0.18965
0.191368
0.19311
0.194835
0.196528
0.198093
0.199443
0.200635
0.20147
0.202018
0.16578
0.165964
0.166096
0.166518
0.166663
0.167053
0.167227
0.16762
0.167993
0.16842
0.168899
0.169432
0.170025
0.170671
0.171364
0.172121
0.172938
0.173797
0.174719
0.175707
0.176756
0.177876
0.179048
0.180281
0.181595
0.182975
0.184418
0.185931
0.187496
0.189105
0.190768
0.192451
0.194105
0.195703
0.197239
0.19857
0.199649
0.200549
0.200909
0.165683
0.165738
0.165777
0.16623
0.166437
0.16689
0.167078
0.167492
0.167858
0.168276
0.168747
0.16927
0.169852
0.17049
0.171173
0.171911
0.172713
0.173562
0.174465
0.175435
0.176463
0.177555
0.178709
0.179916
0.181192
0.182539
0.183945
0.185416
0.186942
0.188491
0.190078
0.191692
0.193273
0.194804
0.196261
0.197615
0.198717
0.199409
0.199611
0.1657
0.165648
0.16556
0.165965
0.166168
0.16667
0.166875
0.167319
0.167683
0.168099
0.168567
0.169084
0.169655
0.170283
0.170959
0.171681
0.172463
0.173302
0.174191
0.175139
0.176148
0.177212
0.178343
0.179532
0.180772
0.182079
0.183449
0.184865
0.186344
0.187843
0.18935
0.190892
0.192419
0.193882
0.195286
0.196521
0.197558
0.198199
0.198222
0.165755
0.165674
0.165499
0.165796
0.165916
0.166424
0.166627
0.167099
0.167461
0.167878
0.168344
0.168858
0.169417
0.170031
0.170697
0.171405
0.172166
0.172989
0.173866
0.174793
0.175778
0.176819
0.17792
0.179084
0.180296
0.181555
0.182884
0.184256
0.185672
0.187132
0.18859
0.190056
0.191515
0.192912
0.194189
0.195322
0.196143
0.196604
0.19643
0.16574
0.165728
0.165551
0.165733
0.165724
0.166193
0.166365
0.166851
0.167205
0.16762
0.168082
0.168591
0.169137
0.169732
0.170383
0.171079
0.17182
0.172621
0.17348
0.174388
0.175343
0.176355
0.177425
0.178553
0.179737
0.180956
0.18223
0.183562
0.184923
0.186319
0.187734
0.18915
0.190521
0.191839
0.193058
0.194038
0.194819
0.195213
0.195214
0.165593
0.165705
0.165606
0.165727
0.165605
0.166007
0.166124
0.166602
0.166942
0.167353
0.167809
0.168307
0.168841
0.169417
0.17005
0.170732
0.171457
0.172234
0.173068
0.173955
0.174884
0.175865
0.176904
0.177992
0.179138
0.180326
0.181549
0.182823
0.184141
0.185477
0.186826
0.188202
0.189536
0.190726
0.191805
0.192667
0.193185
0.193458
0.193081
0.165325
0.165542
0.165552
0.165698
0.165529
0.16587
0.165927
0.16637
0.16669
0.167094
0.167539
0.168021
0.168542
0.169102
0.169715
0.170381
0.171089
0.171845
0.172651
0.17351
0.174419
0.17537
0.176375
0.177428
0.178533
0.179689
0.180876
0.182097
0.183364
0.184661
0.185946
0.187221
0.188479
0.189583
0.190488
0.19122
0.191742
0.191893
0.191686
0.164988
0.165243
0.165329
0.165567
0.165436
0.165755
0.165772
0.166158
0.166456
0.166848
0.167277
0.167741
0.168246
0.168795
0.169387
0.170032
0.170723
0.171459
0.17224
0.173066
0.17395
0.174879
0.175849
0.176865
0.177929
0.179047
0.180199
0.181378
0.182583
0.183814
0.185033
0.186197
0.187349
0.188429
0.189349
0.189993
0.190328
0.190332
0.189696
0.164655
0.164868
0.16496
0.165306
0.165264
0.165613
0.165627
0.165974
0.166248
0.166628
0.167042
0.167486
0.167977
0.168518
0.169096
0.169718
0.170392
0.17111
0.171871
0.17267
0.173525
0.174433
0.175376
0.176357
0.177382
0.178458
0.179566
0.180698
0.181843
0.182996
0.184145
0.185261
0.186331
0.187362
0.188207
0.18873
0.188745
0.188263
0.187358
0.164396
0.164516
0.164546
0.164959
0.164997
0.165409
0.165449
0.165792
0.166052
0.166422
0.166824
0.167256
0.167736
0.168269
0.168837
0.169442
0.170099
0.170803
0.171549
0.172331
0.173158
0.174043
0.174966
0.175922
0.176912
0.177943
0.179008
0.180093
0.181193
0.182296
0.183378
0.184439
0.185412
0.186268
0.186977
0.187328
0.187233
0.186643
0.185555
0.164223
0.164256
0.164195
0.164604
0.164667
0.165136
0.165217
0.165574
0.16583
0.166195
0.166587
0.167013
0.167483
0.168003
0.168564
0.169157
0.169795
0.170482
0.171213
0.171981
0.172785
0.173639
0.174538
0.17547
0.176432
0.177419
0.178442
0.179485
0.180538
0.181595
0.182602
0.183544
0.184406
0.185097
0.185613
0.185915
0.185721
0.184809
0.183077
0.164085
0.164086
0.163957
0.164303
0.164323
0.164815
0.164929
0.165306
0.165567
0.16593
0.166313
0.166733
0.167195
0.167699
0.168247
0.16883
0.169449
0.170115
0.170826
0.171576
0.172358
0.173178
0.174041
0.174945
0.175877
0.176824
0.177793
0.178778
0.17976
0.180736
0.181667
0.182487
0.183217
0.18382
0.184233
0.184344
0.184115
0.183041
0.180659
0.163928
0.163964
0.16382
0.164083
0.16402
0.164483
0.164607
0.164993
0.165264
0.165628
0.166004
0.166416
0.166871
0.167358
0.167886
0.168458
0.169062
0.169701
0.170386
0.171113
0.171872
0.172661
0.173482
0.174344
0.175238
0.176143
0.177052
0.177969
0.178868
0.179751
0.180612
0.181366
0.181992
0.182484
0.182822
0.18284
0.182388
0.181345
0.178737
0.163717
0.163822
0.163713
0.163918
0.163785
0.164177
0.164281
0.164652
0.164925
0.165285
0.165652
0.166052
0.166495
0.166967
0.167471
0.168022
0.168609
0.169221
0.169872
0.170569
0.1713
0.172057
0.172838
0.173648
0.174491
0.175354
0.176209
0.177061
0.177892
0.178686
0.179467
0.180172
0.180729
0.181089
0.181251
0.181087
0.180551
0.179464
0.176527
0.211337
0.211543
0.211479
0.211645
0.211803
0.211716
0.21167
0.211237
0.210399
0.209441
0.208359
0.206918
0.205312
0.203249
0.200971
0.198548
0.195723
0.192379
0.188548
0.184308
0.179911
0.175139
0.169946
0.164659
0.158878
0.152688
0.146229
0.139478
0.132735
0.125589
0.118292
0.11034
0.102461
0.0944623
0.0869217
0.0795535
0.0678355
0.0604568
0.0536039
0.0447125
0.0371238
0.0303076
0.0238879
0.0161325
0.0101136
0.00537891
-0.000251391
-0.00452022
-0.00781474
-0.0105245
-0.0126053
-0.0137618
-0.0139423
-0.0131256
-0.0114359
-0.00869321
-0.00501048
-0.000634197
0.00433246
0.00968793
0.0152553
0.0213472
0.0279967
0.0348229
0.0416072
0.0484452
0.0552255
0.0615519
0.0676265
0.0737034
0.0793718
0.0843962
0.0891072
0.0935332
0.09718
0.100341
0.102422
0.10412
0.106215
0.211199
0.211798
0.212249
0.212444
0.212403
0.212254
0.21185
0.211251
0.210364
0.20928
0.208026
0.206553
0.204827
0.202823
0.200379
0.19748
0.194292
0.190823
0.187149
0.183138
0.178811
0.174054
0.168968
0.163377
0.157952
0.151997
0.145569
0.138609
0.131218
0.124221
0.116648
0.109387
0.101339
0.0939369
0.0855796
0.0773609
0.0681407
0.0601662
0.052751
0.0446282
0.0370468
0.0298799
0.0231591
0.0164611
0.010676
0.00457535
-8.08208e-05
-0.00425818
-0.00773596
-0.0104385
-0.0120927
-0.0129407
-0.0129911
-0.0122609
-0.010642
-0.00816165
-0.00485727
-0.000725399
0.00428567
0.00995657
0.0159784
0.022149
0.0286439
0.0353791
0.0422486
0.0490649
0.0556486
0.0621853
0.0681608
0.0739313
0.0794094
0.0844665
0.088984
0.0929051
0.0968306
0.100247
0.103331
0.105971
0.108106
0.211466
0.211967
0.212657
0.212824
0.212632
0.212067
0.211343
0.210666
0.209945
0.208931
0.207662
0.205902
0.203683
0.201271
0.198595
0.195741
0.192528
0.189251
0.185627
0.181931
0.177617
0.172963
0.168085
0.162687
0.156618
0.150754
0.144568
0.138016
0.130894
0.123589
0.116333
0.108697
0.101147
0.0933282
0.0852987
0.0769305
0.0688441
0.0606944
0.052577
0.0450076
0.0375777
0.0302971
0.0233051
0.0172299
0.0112282
0.00579063
0.000855868
-0.00315232
-0.00661661
-0.00928951
-0.0110088
-0.0116637
-0.0115502
-0.0107265
-0.00890277
-0.006342
-0.00309152
0.000726332
0.00520292
0.0106463
0.0167895
0.0231236
0.0295779
0.0361002
0.042648
0.0492664
0.0558148
0.0623905
0.0688011
0.0745995
0.0795913
0.0841681
0.0887106
0.0928418
0.096695
0.100451
0.103957
0.106731
0.108851
0.211358
0.211528
0.211679
0.211679
0.211546
0.211352
0.210945
0.210192
0.209313
0.207411
0.206566
0.204632
0.202549
0.200466
0.19809
0.195378
0.192388
0.189142
0.185299
0.181053
0.176637
0.172211
0.167481
0.16237
0.156505
0.150325
0.144305
0.13786
0.131073
0.124061
0.117225
0.109942
0.101973
0.0939521
0.0861
0.0785799
0.0706173
0.062764
0.0547535
0.0470547
0.0398583
0.032942
0.0261264
0.019647
0.013989
0.0085339
0.00412355
9.82218e-05
-0.00333102
-0.00580165
-0.00743772
-0.00830865
-0.00836744
-0.00744627
-0.00575629
-0.00323684
0.000181815
0.00430278
0.00901525
0.0141281
0.019638
0.0256322
0.0319573
0.0384792
0.0449734
0.0512317
0.0573365
0.0633968
0.0694623
0.0752086
0.0803651
0.0851759
0.089363
0.0931578
0.0968972
0.100476
0.103789
0.106685
0.108983
0.211048
0.211281
0.211455
0.211443
0.211365
0.211186
0.210665
0.209807
0.208551
0.206939
0.205633
0.204137
0.20235
0.200196
0.197786
0.194958
0.191849
0.188312
0.184543
0.180467
0.176142
0.171525
0.166799
0.161688
0.15639
0.150593
0.144481
0.138349
0.13157
0.124728
0.117473
0.110191
0.102791
0.0953355
0.0876709
0.0801244
0.0725356
0.0647311
0.0573059
0.0502001
0.0433049
0.036369
0.0298365
0.0240474
0.0183013
0.0131158
0.00864772
0.00473555
0.00168767
-0.000659167
-0.00222416
-0.00302587
-0.00293558
-0.00189771
-0.000237454
0.00207461
0.00526436
0.00917755
0.0137166
0.0187818
0.0243155
0.0301056
0.0360674
0.0420998
0.0483284
0.0546287
0.0604935
0.06615
0.0716463
0.0769303
0.0819138
0.0864628
0.0906297
0.0944132
0.0978674
0.101052
0.104105
0.10672
0.108781
0.21117
0.211568
0.211761
0.211825
0.211514
0.210732
0.209837
0.208802
0.207724
0.206563
0.205397
0.203873
0.201808
0.19932
0.196431
0.193493
0.190436
0.187454
0.183976
0.18019
0.176054
0.171552
0.166569
0.161639
0.156109
0.150409
0.144454
0.138248
0.131917
0.124941
0.118164
0.11092
0.103862
0.0964332
0.0893105
0.0819332
0.0745426
0.0672088
0.0599965
0.0532353
0.0465428
0.0400576
0.0337892
0.0280664
0.0226152
0.0179476
0.0139135
0.0104357
0.00749818
0.00555957
0.00409614
0.00322277
0.00339476
0.00433179
0.00603118
0.00860675
0.011748
0.0156434
0.0200322
0.0247328
0.0299747
0.0355903
0.0412282
0.0470129
0.0528911
0.0587429
0.0645413
0.0698019
0.0748772
0.0798151
0.0847165
0.08931
0.0932315
0.0968378
0.0999593
0.102913
0.105443
0.107631
0.109597
0.211461
0.211645
0.211673
0.211266
0.210726
0.210254
0.209575
0.208765
0.20784
0.206548
0.204947
0.20275
0.200371
0.198026
0.195679
0.192954
0.189937
0.186714
0.18333
0.179409
0.175053
0.170612
0.165798
0.160669
0.155631
0.150049
0.144245
0.138186
0.131504
0.125026
0.118139
0.111706
0.104804
0.0979712
0.0906758
0.0836926
0.0764486
0.0694414
0.062719
0.0559455
0.04935
0.0431664
0.0377993
0.0324964
0.0273775
0.0228681
0.0190973
0.0154776
0.0130718
0.0112445
0.0100986
0.00990615
0.0102644
0.0112626
0.0130281
0.0153752
0.0184033
0.0220609
0.0262899
0.0311231
0.0363108
0.0416751
0.0471016
0.0525725
0.0580414
0.0635201
0.069001
0.0742562
0.0789233
0.0833583
0.0879063
0.0920667
0.0956222
0.0988261
0.101686
0.104234
0.106595
0.108901
0.110658
0.211082
0.211139
0.210948
0.210715
0.210461
0.209992
0.209355
0.208442
0.207096
0.205421
0.203494
0.201515
0.19965
0.19762
0.195375
0.192599
0.189447
0.185798
0.182044
0.178283
0.174352
0.169793
0.165156
0.160239
0.154907
0.149585
0.143769
0.137872
0.131957
0.125469
0.119061
0.112232
0.105896
0.0990164
0.0924087
0.0853405
0.0785942
0.0716883
0.0650972
0.0587038
0.0525587
0.0467367
0.0410007
0.0359651
0.0312748
0.0274867
0.0238236
0.0209681
0.0185506
0.0167011
0.0158152
0.0157182
0.0163066
0.0174612
0.0194827
0.0222682
0.0253189
0.0287981
0.0327664
0.03725
0.0421169
0.0473047
0.0527065
0.0580054
0.0628867
0.0677994
0.0729354
0.0777884
0.0823627
0.0867944
0.0909912
0.0947006
0.0982935
0.101514
0.104112
0.10637
0.108396
0.110155
0.111804
0.210451
0.210371
0.210212
0.209981
0.209639
0.209206
0.208299
0.207084
0.2058
0.204483
0.202926
0.201163
0.199215
0.197183
0.194753
0.191858
0.188391
0.185025
0.181558
0.177706
0.173537
0.169508
0.164772
0.159872
0.154764
0.149118
0.143634
0.137802
0.131828
0.125895
0.119731
0.113747
0.10696
0.100363
0.0936483
0.0871984
0.0805404
0.074242
0.0678187
0.0614425
0.0554193
0.0500596
0.04531
0.040201
0.0357565
0.0318311
0.0286504
0.0257122
0.0237468
0.0223357
0.0215155
0.0214712
0.021951
0.0232978
0.0254181
0.0279841
0.0311275
0.0347356
0.0388882
0.0433868
0.0478928
0.0527574
0.0578818
0.063109
0.0682886
0.0730477
0.0775314
0.081807
0.0859879
0.0899585
0.0938174
0.0975513
0.100725
0.103482
0.105839
0.107786
0.109604
0.11147
0.112883
0.209901
0.210031
0.210018
0.209733
0.209283
0.208521
0.207635
0.20663
0.205457
0.204188
0.202826
0.201125
0.199037
0.196484
0.193877
0.191141
0.188305
0.184788
0.18122
0.177739
0.173717
0.16901
0.164498
0.159555
0.154535
0.149602
0.144057
0.138672
0.132781
0.126901
0.12081
0.1143
0.108073
0.101626
0.0954072
0.088988
0.082784
0.0765126
0.0705882
0.0648349
0.0594097
0.0540945
0.0487371
0.0443529
0.0404198
0.0370721
0.0336887
0.031394
0.0296372
0.0280593
0.027392
0.0273136
0.0280398
0.029525
0.0315842
0.0341588
0.0371648
0.0406037
0.0445256
0.0487418
0.0532743
0.0579278
0.0626531
0.0673488
0.0720541
0.0768362
0.0813409
0.0857159
0.0897455
0.0933099
0.0964896
0.0993955
0.102598
0.105705
0.108264
0.110276
0.112013
0.113174
0.114189
0.209935
0.2102
0.210109
0.209668
0.208872
0.208076
0.207202
0.206258
0.205235
0.204097
0.202546
0.200611
0.198277
0.195775
0.193142
0.19051
0.187675
0.18471
0.181407
0.177592
0.173785
0.169462
0.164707
0.16023
0.155297
0.149998
0.144827
0.139109
0.133744
0.127766
0.121899
0.116014
0.109833
0.103638
0.0974596
0.0913452
0.0854386
0.0795841
0.0736763
0.0681016
0.0627723
0.0579937
0.0536996
0.0492157
0.0453314
0.0417764
0.0390821
0.0368376
0.0350675
0.0344816
0.0341623
0.034178
0.0348265
0.0360762
0.0378016
0.0402209
0.0432687
0.0468738
0.050713
0.0546608
0.0588551
0.0632378
0.0676125
0.0720786
0.0766552
0.0809478
0.085152
0.0892264
0.0931274
0.0966587
0.0998452
0.102954
0.105466
0.107538
0.109629
0.111574
0.113106
0.114477
0.115668
0.209999
0.209882
0.209523
0.209003
0.208559
0.208117
0.207665
0.20689
0.205613
0.20402
0.202206
0.200216
0.19802
0.195698
0.193337
0.190999
0.188267
0.184999
0.181504
0.177827
0.173524
0.16941
0.165234
0.16051
0.155931
0.150974
0.145714
0.140584
0.134684
0.129215
0.123314
0.117626
0.111865
0.106147
0.100199
0.0944401
0.0887229
0.0831704
0.0778735
0.0726786
0.0677694
0.062895
0.0581882
0.054614
0.0512775
0.0482569
0.0454463
0.0434718
0.0422109
0.0410853
0.0408206
0.0412165
0.0422233
0.0435862
0.0455392
0.0478976
0.0506231
0.0536813
0.0569853
0.0606211
0.0646921
0.0689932
0.073084
0.0769997
0.0808481
0.0847722
0.0886781
0.0925866
0.0961302
0.0994123
0.10226
0.104627
0.106742
0.108888
0.110881
0.112657
0.114486
0.115937
0.116865
0.209563
0.209455
0.20939
0.209336
0.2091
0.208603
0.207881
0.206771
0.205413
0.203612
0.201779
0.20006
0.198308
0.196298
0.193884
0.191141
0.188232
0.18494
0.181204
0.177577
0.174142
0.169802
0.165439
0.161278
0.156419
0.151637
0.146539
0.141279
0.13627
0.130568
0.12523
0.11946
0.114058
0.108407
0.10299
0.0974472
0.0921893
0.086797
0.081596
0.0768066
0.072243
0.0682613
0.0644049
0.0604212
0.0571159
0.0543696
0.0523216
0.0506403
0.0490321
0.0487047
0.0487875
0.0491547
0.049856
0.0511124
0.0529031
0.0553406
0.0581955
0.0612424
0.0644464
0.0677152
0.0711081
0.074652
0.0785035
0.082447
0.086138
0.0896541
0.0929795
0.0961102
0.0990738
0.101968
0.104702
0.107447
0.109811
0.111349
0.112785
0.114179
0.115392
0.116497
0.117774
0.209375
0.209365
0.209258
0.2091
0.208795
0.208146
0.207119
0.206059
0.204677
0.2032
0.201756
0.200257
0.198364
0.196083
0.193607
0.190814
0.187482
0.184263
0.181249
0.177657
0.173726
0.170133
0.165972
0.161353
0.157043
0.152015
0.147238
0.142205
0.136847
0.131833
0.126351
0.121348
0.115927
0.110943
0.105575
0.100536
0.0954334
0.0906603
0.0860862
0.0815225
0.0772686
0.0730789
0.0695097
0.0667808
0.0642294
0.0617394
0.0597819
0.0583275
0.05741
0.0563507
0.0560353
0.056644
0.0577503
0.0591279
0.0609808
0.063117
0.0654877
0.0683165
0.0716147
0.0749723
0.0781154
0.0813381
0.0846895
0.0879889
0.0914986
0.0948346
0.0979308
0.100822
0.103231
0.105512
0.107719
0.109717
0.111397
0.113306
0.114937
0.116021
0.11722
0.118291
0.11876
0.209313
0.209305
0.209286
0.209021
0.208414
0.207532
0.206621
0.205607
0.204649
0.203441
0.201933
0.200128
0.198089
0.195739
0.193018
0.190173
0.187373
0.184128
0.18055
0.177353
0.17376
0.169469
0.16538
0.161079
0.156427
0.152039
0.147116
0.14256
0.137701
0.132457
0.127675
0.122341
0.117481
0.112278
0.107507
0.102803
0.0982574
0.0936637
0.0893904
0.0854475
0.081625
0.0784917
0.0752793
0.0722435
0.0695656
0.0677028
0.0662731
0.0651093
0.064241
0.0642321
0.0645402
0.0649937
0.0657851
0.0670798
0.0689004
0.071098
0.0734319
0.0757945
0.0786966
0.0819049
0.0850332
0.0879916
0.0910629
0.0938899
0.0965307
0.0994028
0.102203
0.104819
0.107275
0.109261
0.110938
0.112679
0.114648
0.116289
0.117542
0.118667
0.11928
0.119455
0.119941
0.208842
0.208918
0.20861
0.208083
0.207573
0.206946
0.206106
0.205311
0.204331
0.202872
0.201098
0.198999
0.196629
0.194225
0.191873
0.189303
0.186341
0.183404
0.180158
0.176455
0.172792
0.169048
0.164672
0.160582
0.156311
0.151572
0.147122
0.142294
0.13775
0.133013
0.128052
0.123487
0.118653
0.114089
0.109263
0.104743
0.100457
0.0964795
0.0924328
0.088675
0.0853808
0.0818962
0.0794044
0.0771724
0.0754607
0.0735199
0.0721443
0.0714269
0.071109
0.0710737
0.0711419
0.0721175
0.0734426
0.0749095
0.0766117
0.0786858
0.0808786
0.0833324
0.0860275
0.088756
0.0913792
0.0941141
0.0968778
0.0994832
0.102184
0.104579
0.106749
0.109067
0.111319
0.113225
0.11515
0.116494
0.117228
0.11803
0.11892
0.119735
0.120443
0.121258
0.121232
0.208484
0.20839
0.208194
0.207814
0.207316
0.20672
0.205885
0.204799
0.203415
0.201813
0.199846
0.197863
0.195877
0.193571
0.191099
0.188546
0.185816
0.182466
0.179201
0.175851
0.171893
0.167899
0.164176
0.159747
0.15557
0.15126
0.146605
0.142305
0.137606
0.133065
0.128523
0.123808
0.119433
0.115119
0.110838
0.10677
0.102704
0.0987604
0.095386
0.0922215
0.0891226
0.0867239
0.0839469
0.0818732
0.0798854
0.0788808
0.0782712
0.0774039
0.0774761
0.077763
0.078719
0.0795969
0.0807001
0.0821065
0.0839327
0.0860888
0.0882442
0.0902062
0.0922596
0.0948799
0.09759
0.100357
0.103093
0.105414
0.107281
0.109146
0.111013
0.11272
0.114481
0.116122
0.117382
0.118432
0.119611
0.120514
0.121033
0.121597
0.122082
0.122328
0.122609
0.207511
0.207482
0.207234
0.206906
0.206462
0.205764
0.204818
0.203534
0.202232
0.20077
0.199151
0.197152
0.194912
0.192584
0.190073
0.187343
0.184538
0.181677
0.178142
0.174651
0.17117
0.167088
0.162877
0.159262
0.154956
0.150757
0.146587
0.14205
0.137873
0.133383
0.129159
0.124943
0.120794
0.116454
0.112467
0.108596
0.105009
0.101655
0.0982093
0.0952527
0.0926533
0.0901211
0.0886491
0.0868829
0.0857323
0.0845661
0.0835559
0.0837605
0.083673
0.0841465
0.0846477
0.0858645
0.0873986
0.0889828
0.0905962
0.0924337
0.094707
0.0971549
0.0994701
0.101578
0.103596
0.105637
0.107698
0.110102
0.112344
0.114208
0.115634
0.116911
0.118232
0.11943
0.120785
0.122042
0.122805
0.122993
0.123187
0.123285
0.123235
0.123468
0.123381
0.206875
0.206813
0.206741
0.206389
0.20574
0.204891
0.203799
0.202683
0.201235
0.19955
0.19766
0.195933
0.194044
0.191737
0.189134
0.186521
0.183537
0.180218
0.177131
0.173771
0.170071
0.166671
0.162912
0.158676
0.154817
0.15062
0.146519
0.142568
0.138195
0.134202
0.130043
0.126015
0.121957
0.1184
0.114684
0.111315
0.107926
0.104746
0.102145
0.0995405
0.0972734
0.0953268
0.0930982
0.0919546
0.090847
0.0901654
0.090401
0.0896802
0.090247
0.0907434
0.0916818
0.0927105
0.0938384
0.0952212
0.097055
0.0990917
0.101158
0.103057
0.104984
0.107172
0.109292
0.111168
0.113088
0.114853
0.116462
0.118176
0.119732
0.12085
0.121698
0.122469
0.12312
0.123659
0.124265
0.125038
0.125592
0.125701
0.125695
0.125585
0.125427
0.206422
0.206497
0.206143
0.205555
0.204764
0.203935
0.203014
0.201602
0.200149
0.198798
0.197375
0.195417
0.193302
0.190974
0.188326
0.185347
0.182531
0.179385
0.176084
0.172986
0.169727
0.165653
0.162045
0.15852
0.154366
0.150405
0.146466
0.142491
0.138698
0.134596
0.130837
0.127041
0.123626
0.119896
0.11648
0.113429
0.110728
0.107969
0.105273
0.103247
0.101104
0.0994177
0.098561
0.097143
0.0964179
0.0961147
0.0952533
0.0958013
0.0960436
0.0965623
0.0975375
0.0989109
0.10063
0.1023
0.103694
0.105009
0.106809
0.108839
0.110903
0.112815
0.114767
0.116291
0.117483
0.118862
0.12018
0.12152
0.122908
0.12416
0.125251
0.126007
0.126277
0.126705
0.127083
0.127146
0.127034
0.127036
0.126923
0.126477
0.126019
0.205376
0.205013
0.204722
0.204334
0.203768
0.20296
0.202052
0.201207
0.199998
0.198402
0.196426
0.194344
0.192181
0.189846
0.187313
0.184783
0.181868
0.178951
0.175619
0.172054
0.168688
0.16557
0.161694
0.158016
0.154411
0.150339
0.146427
0.142715
0.138962
0.135352
0.131616
0.128138
0.124744
0.121725
0.118684
0.115683
0.112951
0.110671
0.108718
0.106578
0.105079
0.103675
0.102065
0.101787
0.10132
0.10089
0.101721
0.1018
0.102404
0.103251
0.104003
0.104979
0.106072
0.107433
0.109168
0.11114
0.112907
0.114436
0.115946
0.117503
0.119115
0.120646
0.122189
0.123514
0.124529
0.125409
0.126232
0.126861
0.127492
0.128071
0.128568
0.128718
0.128456
0.128262
0.128376
0.128224
0.12789
0.127802
0.127651
0.204737
0.204775
0.204405
0.203966
0.203385
0.202703