/*--------------------------------*- C++ -*----------------------------------*\
| =========                 |                                                 |
| \\      /  F ield         | OpenFOAM: The Open Source CFD Toolbox           |
|  \\    /   O peration     | Version:  v2006                                 |
|   \\  /    A nd           | Website:  www.openfoam.com                      |
|    \\/     M anipulation  |                                                 |
\*---------------------------------------------------------------------------*/
FoamFile
{
    version     2.0;
    format      ascii;
    class       volVectorField;
    location    "40";
    object      U;
}
// * * * * * * * * * * * * * * * * * * * * * * * * * * * * * * * * * * * * * //

dimensions      [0 1 -1 0 0 0 0];


internalField   nonuniform List<vector> 
62212
(
(1.08068 -0.00272936 0)
(1.0815 -0.00265162 0)
(1.08268 -0.00300873 0)
(1.08341 -0.00311267 0)
(1.08373 -0.00319831 0)
(1.08371 -0.00328036 0)
(1.08339 -0.00335672 0)
(1.08282 -0.00343168 0)
(1.08207 -0.00351279 0)
(1.08115 -0.00359939 0)
(1.08012 -0.00368767 0)
(1.079 -0.00377588 0)
(1.07783 -0.00386627 0)
(1.07663 -0.00395537 0)
(1.0754 -0.00403474 0)
(1.07418 -0.00410388 0)
(1.07294 -0.00416301 0)
(1.07169 -0.00421096 0)
(1.07042 -0.00424355 0)
(1.06911 -0.00426265 0)
(1.06771 -0.00427083 0)
(1.0662 -0.00427155 0)
(1.06451 -0.0042695 0)
(1.06259 -0.0042771 0)
(1.06032 -0.00430169 0)
(1.05763 -0.00435284 0)
(1.05437 -0.00443893 0)
(1.05041 -0.00460111 0)
(1.04557 -0.00485153 0)
(1.03972 -0.00520521 0)
(1.03253 -0.00575787 0)
(1.02391 -0.00641338 0)
(1.01367 -0.00720062 0)
(1.00139 -0.00840069 0)
(0.987225 -0.00995158 0)
(0.97158 -0.0116277 0)
(0.95421 -0.0139032 0)
(0.934625 -0.0159206 0)
(0.914492 -0.0147265 0)
(1.07989 -0.0021697 0)
(1.08125 -0.00191352 0)
(1.08259 -0.00272029 0)
(1.08331 -0.00285343 0)
(1.08365 -0.00297471 0)
(1.08363 -0.00305667 0)
(1.08331 -0.00310992 0)
(1.08275 -0.00315368 0)
(1.082 -0.00319324 0)
(1.08108 -0.00322926 0)
(1.08005 -0.00325849 0)
(1.07894 -0.00328013 0)
(1.07777 -0.00329456 0)
(1.07657 -0.00330085 0)
(1.07536 -0.00329484 0)
(1.07413 -0.00327589 0)
(1.0729 -0.00324421 0)
(1.07167 -0.00319611 0)
(1.0704 -0.00312968 0)
(1.06909 -0.00304351 0)
(1.0677 -0.00294023 0)
(1.06619 -0.00281892 0)
(1.0645 -0.0026871 0)
(1.06255 -0.00254664 0)
(1.06028 -0.00241086 0)
(1.05756 -0.00228847 0)
(1.05428 -0.00219719 0)
(1.05029 -0.00214456 0)
(1.04541 -0.00217981 0)
(1.03941 -0.00227029 0)
(1.03224 -0.00239755 0)
(1.0235 -0.00280934 0)
(1.01312 -0.00338995 0)
(1.00118 -0.00408226 0)
(0.987176 -0.00515896 0)
(0.971103 -0.00599229 0)
(0.953246 -0.00624817 0)
(0.933974 -0.00885744 0)
(0.91369 -0.0156069 0)
(1.07926 -0.00172452 0)
(1.08113 -0.00131027 0)
(1.08261 -0.00244968 0)
(1.08334 -0.00258363 0)
(1.0837 -0.00274543 0)
(1.08369 -0.00282827 0)
(1.08337 -0.00285909 0)
(1.08282 -0.00286854 0)
(1.08206 -0.00286365 0)
(1.08115 -0.0028454 0)
(1.08012 -0.0028147 0)
(1.07901 -0.00277232 0)
(1.07785 -0.00271853 0)
(1.07666 -0.00265059 0)
(1.07545 -0.00256533 0)
(1.07424 -0.00246101 0)
(1.07302 -0.00233555 0)
(1.07179 -0.00218863 0)
(1.07054 -0.00201604 0)
(1.06924 -0.00181836 0)
(1.06786 -0.00159642 0)
(1.06636 -0.00135179 0)
(1.06469 -0.00108785 0)
(1.06276 -0.000813676 0)
(1.06049 -0.000527654 0)
(1.05778 -0.000241907 0)
(1.05448 3.22602e-05 0)
(1.05046 0.000286233 0)
(1.04556 0.000526535 0)
(1.03956 0.000664687 0)
(1.03226 0.000709954 0)
(1.02367 0.000716648 0)
(1.01309 0.000481469 0)
(1.00053 0.000230579 0)
(0.9864 0.000100072 0)
(0.969856 -0.000943884 0)
(0.95163 -0.0026923 0)
(0.933958 -0.00307798 0)
(0.913339 -2.10457e-05 0)
(1.07854 -0.00139195 0)
(1.08088 -0.0008438 0)
(1.0825 -0.00221392 0)
(1.08325 -0.00232668 0)
(1.08362 -0.00253065 0)
(1.08362 -0.00261585 0)
(1.08331 -0.0026286 0)
(1.08276 -0.00261141 0)
(1.08202 -0.00256911 0)
(1.08111 -0.00250357 0)
(1.08009 -0.00241662 0)
(1.07899 -0.00230978 0)
(1.07783 -0.00218354 0)
(1.07664 -0.00203827 0)
(1.07544 -0.00187062 0)
(1.07423 -0.00167846 0)
(1.07302 -0.00146136 0)
(1.0718 -0.00121635 0)
(1.07056 -0.000943832 0)
(1.06926 -0.000638882 0)
(1.0679 -0.000303614 0)
(1.0664 6.28951e-05 0)
(1.06472 0.000458384 0)
(1.06279 0.000886284 0)
(1.06051 0.00133261 0)
(1.05777 0.00180119 0)
(1.05447 0.00227982 0)
(1.05042 0.00274135 0)
(1.04547 0.00318471 0)
(1.03949 0.00364137 0)
(1.03208 0.00402095 0)
(1.02311 0.00435976 0)
(1.01265 0.00474253 0)
(0.999973 0.00477443 0)
(0.98561 0.00458856 0)
(0.970215 0.00501887 0)
(0.952375 0.00558123 0)
(0.932348 0.00425391 0)
(0.911707 -0.000744548 0)
(1.07786 -0.0011656 0)
(1.08071 -0.00050403 0)
(1.0825 -0.00200458 0)
(1.08328 -0.00207254 0)
(1.08369 -0.00232011 0)
(1.0837 -0.00240737 0)
(1.08341 -0.00240495 0)
(1.08287 -0.0023595 0)
(1.08213 -0.00227638 0)
(1.08124 -0.00216121 0)
(1.08022 -0.00201858 0)
(1.07913 -0.00185101 0)
(1.07798 -0.00165885 0)
(1.0768 -0.00143998 0)
(1.07562 -0.0011935 0)
(1.07443 -0.000917745 0)
(1.07323 -0.000609764 0)
(1.07203 -0.000268903 0)
(1.07081 0.000108964 0)
(1.06953 0.000525733 0)
(1.06818 0.000982153 0)
(1.06671 0.001478 0)
(1.06505 0.00201212 0)
(1.06314 0.00258203 0)
(1.06089 0.00319396 0)
(1.05818 0.0038238 0)
(1.05488 0.00448744 0)
(1.05086 0.00517864 0)
(1.04587 0.00587605 0)
(1.03982 0.00658716 0)
(1.03247 0.00731634 0)
(1.02352 0.00792017 0)
(1.01296 0.008459 0)
(1.00081 0.00917026 0)
(0.986515 0.00989114 0)
(0.969885 0.00987797 0)
(0.951364 0.00955903 0)
(0.932403 0.0106572 0)
(0.911751 0.0150425 0)
(1.07703 -0.00104459 0)
(1.08036 -0.000304127 0)
(1.08233 -0.00183822 0)
(1.08317 -0.00183106 0)
(1.08362 -0.00211811 0)
(1.08366 -0.0022051 0)
(1.08338 -0.00219182 0)
(1.08286 -0.00212399 0)
(1.08213 -0.00200696 0)
(1.08125 -0.00184761 0)
(1.08024 -0.00165306 0)
(1.07916 -0.00142613 0)
(1.07803 -0.00116733 0)
(1.07686 -0.000876224 0)
(1.07568 -0.00055097 0)
(1.0745 -0.000190591 0)
(1.07331 0.000208435 0)
(1.07212 0.000648736 0)
(1.07091 0.00112809 0)
(1.06965 0.00165334 0)
(1.06832 0.00222388 0)
(1.06686 0.00284241 0)
(1.06522 0.00350945 0)
(1.06332 0.00422971 0)
(1.06107 0.00500284 0)
(1.05837 0.00583386 0)
(1.05506 0.00669294 0)
(1.05104 0.00760876 0)
(1.0461 0.00855789 0)
(1.04002 0.00953311 0)
(1.03268 0.0105519 0)
(1.02373 0.0115999 0)
(1.01313 0.012611 0)
(1.0006 0.0135481 0)
(0.98603 0.0144549 0)
(0.969833 0.0155748 0)
(0.952056 0.0168763 0)
(0.933495 0.0171488 0)
(0.913971 0.0137888 0)
(1.07627 -0.00102473 0)
(1.08007 -0.000240098 0)
(1.08223 -0.00172696 0)
(1.08316 -0.00161929 0)
(1.08369 -0.00194409 0)
(1.08377 -0.00202494 0)
(1.08352 -0.00200038 0)
(1.08302 -0.00190826 0)
(1.08231 -0.00175411 0)
(1.08144 -0.0015501 0)
(1.08045 -0.0013052 0)
(1.07938 -0.00102147 0)
(1.07827 -0.000698189 0)
(1.07712 -0.000335279 0)
(1.07597 6.62953e-05 0)
(1.07481 0.000508993 0)
(1.07365 0.000995672 0)
(1.07249 0.00152678 0)
(1.07131 0.00210796 0)
(1.07009 0.00274248 0)
(1.06879 0.00343483 0)
(1.06736 0.00418489 0)
(1.06575 0.00499491 0)
(1.06389 0.00586473 0)
(1.06169 0.00680301 0)
(1.05903 0.00780163 0)
(1.05577 0.00886292 0)
(1.05177 0.0099866 0)
(1.04685 0.0112002 0)
(1.0408 0.0124594 0)
(1.03352 0.0138002 0)
(1.02467 0.0151185 0)
(1.01405 0.0164269 0)
(1.00178 0.017989 0)
(0.987483 0.0198142 0)
(0.971183 0.0213096 0)
(0.953098 0.0223312 0)
(0.932792 0.024262 0)
(0.910541 0.0298535 0)
(1.07546 -0.00108292 0)
(1.0796 -0.000285171 0)
(1.08194 -0.0016575 0)
(1.08297 -0.00142785 0)
(1.08361 -0.00178012 0)
(1.08373 -0.00184441 0)
(1.08352 -0.00180929 0)
(1.08304 -0.00169655 0)
(1.08235 -0.00151103 0)
(1.0815 -0.00126732 0)
(1.08054 -0.000975937 0)
(1.07949 -0.000637856 0)
(1.07839 -0.000254648 0)
(1.07726 0.000173825 0)
(1.07612 0.000649779 0)
(1.07498 0.00117369 0)
(1.07384 0.00174867 0)
(1.0727 0.00237859 0)
(1.07154 0.00306227 0)
(1.07034 0.00380706 0)
(1.06907 0.00461447 0)
(1.06768 0.00548777 0)
(1.0661 0.00642964 0)
(1.06428 0.00744753 0)
(1.06209 0.00854481 0)
(1.05947 0.00974707 0)
(1.05625 0.0110164 0)
(1.05227 0.0123716 0)
(1.04747 0.0138302 0)
(1.04151 0.0153383 0)
(1.03424 0.0169418 0)
(1.02548 0.0187435 0)
(1.01471 0.0205527 0)
(1.00216 0.0224181 0)
(0.987916 0.0243251 0)
(0.971703 0.0259016 0)
(0.953985 0.0279613 0)
(0.93561 0.030419 0)
(0.916367 0.0302532 0)
(1.07489 -0.00119465 0)
(1.07924 -0.000411723 0)
(1.08174 -0.00165442 0)
(1.08289 -0.00129824 0)
(1.08364 -0.00167019 0)
(1.08383 -0.00170625 0)
(1.08367 -0.00165437 0)
(1.08323 -0.00151522 0)
(1.08257 -0.0012958 0)
(1.08174 -0.00101423 0)
(1.0808 -0.000677081 0)
(1.07978 -0.000285121 0)
(1.0787 0.000160497 0)
(1.07761 0.000658837 0)
(1.0765 0.00120845 0)
(1.07539 0.00181102 0)
(1.07429 0.00246915 0)
(1.07319 0.00318618 0)
(1.07207 0.00396892 0)
(1.07091 0.00481802 0)
(1.06968 0.00574397 0)
(1.06833 0.00674864 0)
(1.06679 0.00783326 0)
(1.06502 0.00900942 0)
(1.0629 0.0102736 0)
(1.06033 0.0116362 0)
(1.05723 0.0131224 0)
(1.05331 0.0146574 0)
(1.04851 0.0163534 0)
(1.04264 0.0182057 0)
(1.03525 0.0201501 0)
(1.02646 0.0223161 0)
(1.01608 0.0245596 0)
(1.00384 0.0266834 0)
(0.989874 0.0292143 0)
(0.974133 0.0324436 0)
(0.956009 0.0355918 0)
(0.934983 0.0386063 0)
(0.912639 0.0441505 0)
(1.07435 -0.00130105 0)
(1.07877 -0.000544235 0)
(1.08136 -0.00166979 0)
(1.08264 -0.00118955 0)
(1.08352 -0.0015723 0)
(1.08378 -0.0015679 0)
(1.08368 -0.00149662 0)
(1.08327 -0.0013318 0)
(1.08264 -0.00108445 0)
(1.08184 -0.000768071 0)
(1.08092 -0.000388337 0)
(1.07993 5.18905e-05 0)
(1.07888 0.000551356 0)
(1.0778 0.00110991 0)
(1.07671 0.00172785 0)
(1.07563 0.00240696 0)
(1.07456 0.00315175 0)
(1.07348 0.00396434 0)
(1.07239 0.00484794 0)
(1.07127 0.00580925 0)
(1.07008 0.00684708 0)
(1.06878 0.00797795 0)
(1.0673 0.00919445 0)
(1.06557 0.0105101 0)
(1.06352 0.0119402 0)
(1.06099 0.0134823 0)
(1.05791 0.0151744 0)
(1.05408 0.0170025 0)
(1.04926 0.018925 0)
(1.04347 0.0210858 0)
(1.03641 0.0233548 0)
(1.02783 0.0257366 0)
(1.01769 0.028347 0)
(1.00559 0.0310772 0)
(0.991104 0.0339559 0)
(0.974456 0.0367417 0)
(0.95677 0.0399012 0)
(0.939084 0.0435191 0)
(0.921243 0.0457719 0)
(1.07407 -0.00138519 0)
(1.07847 -0.000666246 0)
(1.08112 -0.00173897 0)
(1.08253 -0.00115323 0)
(1.08352 -0.00153934 0)
(1.08386 -0.00147985 0)
(1.08381 -0.00137974 0)
(1.08346 -0.00118409 0)
(1.08287 -0.000905033 0)
(1.0821 -0.000553567 0)
(1.08122 -0.00013168 0)
(1.08026 0.000359546 0)
(1.07924 0.00091807 0)
(1.0782 0.00154205 0)
(1.07715 0.00223052 0)
(1.07611 0.00298493 0)
(1.07508 0.00380943 0)
(1.07405 0.00470639 0)
(1.07301 0.00568314 0)
(1.07193 0.00674455 0)
(1.07079 0.00789696 0)
(1.06954 0.00914957 0)
(1.06812 0.0105139 0)
(1.06643 0.0119814 0)
(1.06444 0.0135809 0)
(1.062 0.0153114 0)
(1.05897 0.0171965 0)
(1.05526 0.0192393 0)
(1.05061 0.021417 0)
(1.0449 0.0237561 0)
(1.03795 0.0263428 0)
(1.02941 0.029169 0)
(1.01901 0.0322481 0)
(1.00657 0.0354566 0)
(0.992295 0.0389192 0)
(0.976597 0.0432752 0)
(0.959504 0.0479324 0)
(0.940012 0.0522457 0)
(0.917784 0.0584894 0)
(1.07375 -0.00141021 0)
(1.0781 -0.000709986 0)
(1.08077 -0.00178834 0)
(1.08228 -0.00112338 0)
(1.08339 -0.00150799 0)
(1.0838 -0.00138714 0)
(1.08381 -0.00126276 0)
(1.0835 -0.00103918 0)
(1.08295 -0.000732302 0)
(1.08222 -0.000347792 0)
(1.08137 0.000113283 0)
(1.08043 0.000647879 0)
(1.07944 0.0012556 0)
(1.07843 0.00193533 0)
(1.07741 0.0026871 0)
(1.07639 0.0035134 0)
(1.07539 0.00441929 0)
(1.0744 0.0054073 0)
(1.07339 0.00648189 0)
(1.07236 0.00765367 0)
(1.07126 0.00891955 0)
(1.07005 0.0102955 0)
(1.0687 0.0117929 0)
(1.06708 0.0134105 0)
(1.06514 0.0151621 0)
(1.06278 0.0170776 0)
(1.05983 0.019159 0)
(1.0562 0.0214393 0)
(1.05162 0.023871 0)
(1.04595 0.0265546 0)
(1.03902 0.0294851 0)
(1.03051 0.0326901 0)
(1.02045 0.0362382 0)
(1.00854 0.0398954 0)
(0.99481 0.0437547 0)
(0.979119 0.0477456 0)
(0.961537 0.0518258 0)
(0.94289 0.0563099 0)
(0.924793 0.06113 0)
(1.0736 -0.00140338 0)
(1.07792 -0.00071416 0)
(1.0806 -0.00186409 0)
(1.08219 -0.0011473 0)
(1.08338 -0.00152247 0)
(1.08386 -0.00133046 0)
(1.08393 -0.00117308 0)
(1.08368 -0.0009165 0)
(1.08318 -0.000578052 0)
(1.0825 -0.000158337 0)
(1.08168 0.000342016 0)
(1.08078 0.000923296 0)
(1.07983 0.00158561 0)
(1.07886 0.00232575 0)
(1.07788 0.00314342 0)
(1.0769 0.00404171 0)
(1.07595 0.00502434 0)
(1.075 0.00609589 0)
(1.07404 0.00726106 0)
(1.07306 0.0085274 0)
(1.07202 0.00990813 0)
(1.07086 0.0113992 0)
(1.06956 0.0130364 0)
(1.06803 0.014811 0)
(1.06613 0.0167279 0)
(1.06386 0.0188226 0)
(1.061 0.0211046 0)
(1.05745 0.0236109 0)
(1.05302 0.0263259 0)
(1.04742 0.0292319 0)
(1.04067 0.0325051 0)
(1.03242 0.0360216 0)
(1.02238 0.0398572 0)
(1.01051 0.0439536 0)
(0.996401 0.0481737 0)
(0.980532 0.0534626 0)
(0.963093 0.0595951 0)
(0.944034 0.0658903 0)
(0.92259 0.0733837 0)
(1.07333 -0.00135171 0)
(1.07768 -0.000642228 0)
(1.08036 -0.00189682 0)
(1.082 -0.00116438 0)
(1.08327 -0.00154235 0)
(1.08381 -0.00128346 0)
(1.08394 -0.00110383 0)
(1.08374 -0.000820288 0)
(1.08329 -0.000453379 0)
(1.08265 -1.16329e-06 0)
(1.08187 0.000536828 0)
(1.08101 0.00115805 0)
(1.08009 0.00186545 0)
(1.07915 0.0026574 0)
(1.07821 0.00353327 0)
(1.07727 0.00449724 0)
(1.07635 0.00555373 0)
(1.07544 0.00670947 0)
(1.07453 0.00796854 0)
(1.07359 0.00933874 0)
(1.07261 0.0108313 0)
(1.07151 0.0124507 0)
(1.07026 0.0142071 0)
(1.06882 0.0161377 0)
(1.06702 0.0182104 0)
(1.0648 0.0204787 0)
(1.06207 0.0229665 0)
(1.05858 0.0256882 0)
(1.05428 0.0286794 0)
(1.04883 0.0319146 0)
(1.04209 0.0354471 0)
(1.034 0.0394152 0)
(1.02416 0.0437095 0)
(1.01239 0.048346 0)
(0.998959 0.0534854 0)
(0.98373 0.0591527 0)
(0.966623 0.0648485 0)
(0.948228 0.0700765 0)
(0.930827 0.0762013 0)
(1.0732 -0.00129421 0)
(1.07764 -0.000547026 0)
(1.08032 -0.00191603 0)
(1.08197 -0.00118945 0)
(1.08329 -0.00157054 0)
(1.08388 -0.00124082 0)
(1.08406 -0.00103328 0)
(1.08392 -0.000718886 0)
(1.08352 -0.000322227 0)
(1.08294 0.000164109 0)
(1.08221 0.000739289 0)
(1.08139 0.00140435 0)
(1.08052 0.0021599 0)
(1.07962 0.00300564 0)
(1.07872 0.00394319 0)
(1.07783 0.00497601 0)
(1.07696 0.00610631 0)
(1.0761 0.00734248 0)
(1.07525 0.00869236 0)
(1.07437 0.0101548 0)
(1.07345 0.0117528 0)
(1.07244 0.0134885 0)
(1.07125 0.015375 0)
(1.06988 0.0174452 0)
(1.06819 0.0197043 0)
(1.06604 0.0221357 0)
(1.06341 0.0248286 0)
(1.0601 0.0277873 0)
(1.05588 0.0310181 0)
(1.05067 0.0345486 0)
(1.04418 0.0384217 0)
(1.03624 0.0426285 0)
(1.02665 0.0473167 0)
(1.01508 0.052353 0)
(1.00135 0.0576241 0)
(0.985994 0.0636664 0)
(0.969167 0.0704353 0)
(0.951266 0.0782557 0)
(0.930688 0.0873478 0)
(1.0729 -0.00122116 0)
(1.0775 -0.000414659 0)
(1.08022 -0.0018967 0)
(1.08188 -0.00119761 0)
(1.08323 -0.00160802 0)
(1.08386 -0.0012236 0)
(1.0841 -0.00100408 0)
(1.08401 -0.000668116 0)
(1.08367 -0.000245531 0)
(1.08312 0.000271314 0)
(1.08244 0.000883211 0)
(1.08166 0.00158679 0)
(1.08083 0.00238327 0)
(1.07998 0.00327674 0)
(1.07912 0.00426906 0)
(1.07828 0.00536106 0)
(1.07746 0.00655765 0)
(1.07665 0.00786755 0)
(1.07586 0.00930354 0)
(1.07504 0.0108669 0)
(1.07417 0.0125645 0)
(1.07323 0.0144273 0)
(1.07213 0.0164383 0)
(1.07082 0.0186427 0)
(1.06926 0.0210603 0)
(1.06724 0.0236838 0)
(1.0647 0.0265385 0)
(1.06153 0.0297256 0)
(1.05752 0.0332211 0)
(1.05242 0.037008 0)
(1.0461 0.0411952 0)
(1.03828 0.0458544 0)
(1.02867 0.050942 0)
(1.01729 0.0566203 0)
(1.00429 0.0627613 0)
(0.989946 0.069737 0)
(0.974036 0.0773665 0)
(0.955839 0.0842735 0)
(0.937365 0.0923421 0)
(1.07268 -0.00116729 0)
(1.0775 -0.000291258 0)
(1.08029 -0.00184144 0)
(1.08194 -0.00115994 0)
(1.08331 -0.0016014 0)
(1.08397 -0.00116607 0)
(1.08426 -0.000934584 0)
(1.08423 -0.000574427 0)
(1.08394 -0.000126029 0)
(1.08346 0.000423222 0)
(1.08283 0.0010687 0)
(1.0821 0.00181105 0)
(1.08132 0.00264915 0)
(1.08053 0.00359011 0)
(1.07973 0.00463938 0)
(1.07894 0.00579623 0)
(1.07818 0.00706505 0)
(1.07744 0.0084526 0)
(1.07671 0.00997431 0)
(1.07598 0.0116334 0)
(1.07519 0.0134318 0)
(1.07434 0.0153966 0)
(1.07336 0.0175479 0)
(1.07215 0.0198779 0)
(1.07069 0.0224594 0)
(1.06884 0.0252677 0)
(1.06643 0.028328 0)
(1.06342 0.0316987 0)
(1.05958 0.0354586 0)
(1.05473 0.0395701 0)
(1.04857 0.0440808 0)
(1.04106 0.0490835 0)
(1.03196 0.0545661 0)
(1.0211 0.0604649 0)
(1.0085 0.066879 0)
(0.993812 0.0737434 0)
(0.977287 0.0813461 0)
(0.959848 0.0906987 0)
(0.940926 0.100997 0)
(1.07222 -0.00113848 0)
(1.07735 -0.000204918 0)
(1.08026 -0.00179911 0)
(1.08194 -0.00112622 0)
(1.08332 -0.00162176 0)
(1.084 -0.00115853 0)
(1.08435 -0.000934045 0)
(1.08437 -0.000558309 0)
(1.08413 -8.63108e-05 0)
(1.08369 0.000490724 0)
(1.08311 0.00116873 0)
(1.08243 0.00194582 0)
(1.0817 0.00282265 0)
(1.08095 0.003807 0)
(1.08021 0.00490461 0)
(1.07948 0.00611356 0)
(1.07878 0.00744099 0)
(1.0781 0.00889545 0)
(1.07743 0.0104886 0)
(1.07678 0.0122393 0)
(1.07607 0.014138 0)
(1.07528 0.0162115 0)
(1.07441 0.0184835 0)
(1.07331 0.0209597 0)
(1.07195 0.0236641 0)
(1.07026 0.0266586 0)
(1.06803 0.0298986 0)
(1.06514 0.0334908 0)
(1.06151 0.037484 0)
(1.05685 0.0418776 0)
(1.05104 0.0466866 0)
(1.04378 0.0519877 0)
(1.03492 0.0578311 0)
(1.02421 0.0643557 0)
(1.01151 0.0714761 0)
(0.997518 0.0797643 0)
(0.982251 0.0892574 0)
(0.965026 0.0982815 0)
(0.946136 0.108761 0)
(1.07182 -0.0011407 0)
(1.07723 -0.00015537 0)
(1.0803 -0.00172498 0)
(1.08203 -0.00102775 0)
(1.08345 -0.00156722 0)
(1.08416 -0.00107936 0)
(1.08456 -0.000864745 0)
(1.08464 -0.000469917 0)
(1.08445 2.38873e-05 0)
(1.08406 0.000629018 0)
(1.08353 0.00133407 0)
(1.08292 0.0021425 0)
(1.08225 0.0030563 0)
(1.08155 0.00408105 0)
(1.08087 0.00522757 0)
(1.08021 0.00649611 0)
(1.07958 0.00788998 0)
(1.07897 0.00942027 0)
(1.07839 0.0110931 0)
(1.07781 0.0129265 0)
(1.07722 0.0149299 0)
(1.07654 0.0170983 0)
(1.07577 0.0194876 0)
(1.07483 0.022095 0)
(1.07359 0.024953 0)
(1.07204 0.0281005 0)
(1.07001 0.0315705 0)
(1.06731 0.0353424 0)
(1.06389 0.039574 0)
(1.05955 0.0442211 0)
(1.05396 0.0493273 0)
(1.04711 0.0550355 0)
(1.03849 0.0613262 0)
(1.02817 0.0682737 0)
(1.01626 0.0759874 0)
(1.00245 0.0840916 0)
(0.986967 0.0927892 0)
(0.96993 0.102925 0)
(0.953017 0.113504 0)
(1.07123 -0.00118157 0)
(1.0769 -0.000180628 0)
(1.08014 -0.00172129 0)
(1.08198 -0.000982276 0)
(1.08348 -0.00156872 0)
(1.08423 -0.00106683 0)
(1.08469 -0.000874801 0)
(1.08482 -0.000466226 0)
(1.08468 4.75755e-05 0)
(1.08435 0.000674335 0)
(1.08387 0.00140413 0)
(1.08331 0.00224127 0)
(1.0827 0.00319122 0)
(1.08206 0.0042552 0)
(1.08144 0.00544081 0)
(1.08085 0.00675612 0)
(1.08027 0.00820188 0)
(1.07974 0.00979104 0)
(1.07923 0.0115293 0)
(1.07873 0.0134353 0)
(1.07823 0.0155289 0)
(1.07765 0.0178089 0)
(1.07696 0.0202967 0)
(1.07614 0.0230431 0)
(1.07506 0.0260308 0)
(1.07365 0.0293328 0)
(1.07181 0.03296 0)
(1.06936 0.0369632 0)
(1.06614 0.0413752 0)
(1.06201 0.0463178 0)
(1.05671 0.0517028 0)
(1.04997 0.0577309 0)
(1.04182 0.0644806 0)
(1.03171 0.0718742 0)
(1.01981 0.0799824 0)
(1.00647 0.0892329 0)
(0.991995 0.100032 0)
(0.976307 0.111253 0)
(0.958315 0.124651 0)
(1.07081 -0.00121716 0)
(1.07663 -0.000202157 0)
(1.08 -0.00169389 0)
(1.08199 -0.000896175 0)
(1.0836 -0.0015026 0)
(1.08441 -0.000977681 0)
(1.08494 -0.000808241 0)
(1.08512 -0.000381121 0)
(1.08503 0.00014962 0)
(1.08476 0.000797518 0)
(1.08434 0.00154995 0)
(1.08384 0.00241118 0)
(1.08329 0.00339153 0)
(1.08273 0.00449202 0)
(1.08217 0.0057177 0)
(1.08165 0.00708409 0)
(1.08115 0.00859231 0)
(1.0807 0.0102481 0)
(1.08028 0.0120624 0)
(1.07987 0.0140425 0)
(1.07947 0.0162239 0)
(1.07903 0.0186023 0)
(1.07847 0.0211969 0)
(1.07779 0.0240472 0)
(1.07688 0.0271891 0)
(1.07563 0.0306287 0)
(1.07397 0.0344519 0)
(1.07173 0.0386364 0)
(1.06873 0.0433037 0)
(1.06484 0.0484629 0)
(1.05981 0.0542014 0)
(1.05351 0.0605532 0)
(1.04564 0.067709 0)
(1.03626 0.075641 0)
(1.02508 0.084357 0)
(1.01258 0.0939634 0)
(0.998365 0.104194 0)
(0.981374 0.115275 0)
(0.964975 0.126988 0)
(1.07032 -0.00126451 0)
(1.07626 -0.000260448 0)
(1.0797 -0.0017478 0)
(1.08183 -0.000898298 0)
(1.08356 -0.00151361 0)
(1.08445 -0.000958904 0)
(1.08506 -0.000811797 0)
(1.08529 -0.000368424 0)
(1.08527 0.000175171 0)
(1.08505 0.000837951 0)
(1.08469 0.00160799 0)
(1.08424 0.00249167 0)
(1.08376 0.00350186 0)
(1.08325 0.00463851 0)
(1.08275 0.0058986 0)
(1.08229 0.00730459 0)
(1.08187 0.00886126 0)
(1.08149 0.0105682 0)
(1.08115 0.0124404 0)
(1.08082 0.0144881 0)
(1.08051 0.0167403 0)
(1.08017 0.019223 0)
(1.07972 0.0219192 0)
(1.07914 0.0248885 0)
(1.07838 0.0281492 0)
(1.0773 0.0317481 0)
(1.07582 0.0357063 0)
(1.07379 0.040107 0)
(1.07106 0.0449583 0)
(1.06744 0.0504103 0)
(1.06273 0.0563672 0)
(1.05672 0.0630695 0)
(1.04935 0.0705724 0)
(1.04019 0.0789136 0)
(1.02933 0.0881193 0)
(1.01633 0.0983273 0)
(1.00247 0.110327 0)
(0.98788 0.12337 0)
(0.97327 0.139162 0)
(1.07009 -0.00126224 0)
(1.07609 -0.000249165 0)
(1.07953 -0.0017533 0)
(1.08175 -0.000877348 0)
(1.0836 -0.00149518 0)
(1.08459 -0.000900471 0)
(1.08529 -0.000765924 0)
(1.08558 -0.000296446 0)
(1.08562 0.000261273 0)
(1.08546 0.000938893 0)
(1.08517 0.0017281 0)
(1.0848 0.00263172 0)
(1.08438 0.00366382 0)
(1.08395 0.00483191 0)
(1.08353 0.00612815 0)
(1.08314 0.00757205 0)
(1.08281 0.00918115 0)
(1.08251 0.0109443 0)
(1.08227 0.0128814 0)
(1.08206 0.0150011 0)
(1.08184 0.0173267 0)
(1.08163 0.0198904 0)
(1.08134 0.022692 0)
(1.0809 0.0257509 0)
(1.08031 0.0291438 0)
(1.07941 0.0328687 0)
(1.07813 0.0370133 0)
(1.07632 0.0415724 0)
(1.07383 0.0466578 0)
(1.0705 0.0523066 0)
(1.06615 0.0586229 0)
(1.06049 0.0655692 0)
(1.05339 0.0735548 0)
(1.04476 0.0823941 0)
(1.03426 0.0921949 0)
(1.02312 0.103314 0)
(1.01032 0.115235 0)
(0.995368 0.127802 0)
(0.978716 0.140797 0)
(1.06987 -0.00124585 0)
(1.07595 -0.000211374 0)
(1.07935 -0.00176638 0)
(1.08161 -0.000892733 0)
(1.08353 -0.0015262 0)
(1.08459 -0.000893763 0)
(1.08537 -0.000768783 0)
(1.08573 -0.00027437 0)
(1.08583 0.000287291 0)
(1.08575 0.000974618 0)
(1.08552 0.00177648 0)
(1.08521 0.00269837 0)
(1.08485 0.00375231 0)
(1.08449 0.00494861 0)
(1.08414 0.00627975 0)
(1.08382 0.00775743 0)
(1.08356 0.00940458 0)
(1.08335 0.0112156 0)
(1.08319 0.0131995 0)
(1.08308 0.0153837 0)
(1.08296 0.0177729 0)
(1.08285 0.0204151 0)
(1.08269 0.0233139 0)
(1.08239 0.0264893 0)
(1.08193 0.029986 0)
(1.08123 0.033861 0)
(1.08015 0.0381221 0)
(1.07861 0.0428823 0)
(1.0764 0.0481303 0)
(1.07338 0.0540389 0)
(1.06935 0.0605838 0)
(1.06411 0.067957 0)
(1.05744 0.076158 0)
(1.04929 0.0854551 0)
(1.0398 0.0956401 0)
(1.02816 0.106968 0)
(1.0156 0.119797 0)
(1.0011 0.133982 0)
(0.989732 0.152138 0)
(1.06981 -0.0011837 0)
(1.07602 -0.000102219 0)
(1.07943 -0.00170989 0)
(1.08167 -0.000857284 0)
(1.08361 -0.00152398 0)
(1.08471 -0.00086369 0)
(1.08557 -0.00074501 0)
(1.08597 -0.000221142 0)
(1.08615 0.000349182 0)
(1.08613 0.00105024 0)
(1.08598 0.00186806 0)
(1.08574 0.00280924 0)
(1.08545 0.00388038 0)
(1.08517 0.0050973 0)
(1.0849 0.00646069 0)
(1.08466 0.00796914 0)
(1.08448 0.00965008 0)
(1.08438 0.0115072 0)
(1.08431 0.0135444 0)
(1.08431 0.015788 0)
(1.08431 0.0182498 0)
(1.08431 0.0209496 0)
(1.08431 0.0239324 0)
(1.08419 0.027194 0)
(1.08391 0.0307962 0)
(1.0834 0.0347726 0)
(1.08256 0.0391952 0)
(1.08124 0.044079 0)
(1.07934 0.049557 0)
(1.07664 0.0556487 0)
(1.07298 0.0625001 0)
(1.06817 0.0700787 0)
(1.06208 0.0787845 0)
(1.05435 0.088313 0)
(1.04498 0.0990904 0)
(1.03494 0.111299 0)
(1.02318 0.125123 0)
(1.01104 0.139793 0)
(0.995573 0.15486 0)
(1.06957 -0.00113258 0)
(1.07601 5.51905e-06 0)
(1.07949 -0.00162131 0)
(1.08171 -0.000773351 0)
(1.08363 -0.00149225 0)
(1.08475 -0.000826743 0)
(1.08567 -0.000728107 0)
(1.08612 -0.00018247 0)
(1.08637 0.000379046 0)
(1.08641 0.00108615 0)
(1.08633 0.00191011 0)
(1.08616 0.00286525 0)
(1.08593 0.00395514 0)
(1.08571 0.00518854 0)
(1.08552 0.00657997 0)
(1.08536 0.00812437 0)
(1.08525 0.00983163 0)
(1.08524 0.011728 0)
(1.08527 0.0138097 0)
(1.08536 0.0161035 0)
(1.08549 0.0186237 0)
(1.08561 0.0213921 0)
(1.08572 0.0244431 0)
(1.08576 0.0278116 0)
(1.08565 0.0315128 0)
(1.08534 0.0356158 0)
(1.08472 0.040146 0)
(1.08367 0.0452085 0)
(1.08205 0.0508103 0)
(1.07973 0.0571439 0)
(1.07647 0.0641984 0)
(1.07214 0.0721204 0)
(1.06648 0.0809835 0)
(1.05951 0.0911266 0)
(1.05109 0.102133 0)
(1.04131 0.114974 0)
(1.0304 0.128693 0)
(1.0162 0.144093 0)
(1.00555 0.163584 0)
(1.06931 -0.00110604 0)
(1.07603 6.59408e-05 0)
(1.07967 -0.00153569 0)
(1.08192 -0.000656841 0)
(1.08384 -0.00142497 0)
(1.08495 -0.000769297 0)
(1.08591 -0.000697617 0)
(1.0864 -0.000129428 0)
(1.08671 0.000430512 0)
(1.08683 0.00114971 0)
(1.08681 0.00198455 0)
(1.08671 0.00295538 0)
(1.08657 0.00406152 0)
(1.08642 0.00530763 0)
(1.08631 0.00671621 0)
(1.08625 0.00828722 0)
(1.08624 0.0100196 0)
(1.08631 0.0119413 0)
(1.08646 0.0140704 0)
(1.08666 0.0164097 0)
(1.08692 0.0189882 0)
(1.08719 0.0218106 0)
(1.08746 0.0249256 0)
(1.08768 0.0283579 0)
(1.08779 0.0321506 0)
(1.0877 0.0363341 0)
(1.08734 0.0409954 0)
(1.08657 0.0461605 0)
(1.08528 0.0519568 0)
(1.08333 0.0584272 0)
(1.08053 0.0657425 0)
(1.07668 0.0738516 0)
(1.07166 0.0831169 0)
(1.06514 0.0934092 0)
(1.05726 0.105118 0)
(1.04792 0.11786 0)
(1.03741 0.133232 0)
(1.02734 0.149268 0)
(1.01583 0.166975 0)
(1.06882 -0.00110888 0)
(1.07578 7.33897e-05 0)
(1.07964 -0.00146087 0)
(1.082 -0.000509605 0)
(1.08399 -0.00131615 0)
(1.0851 -0.000680031 0)
(1.08609 -0.000656848 0)
(1.08661 -8.204e-05 0)
(1.08698 0.000452967 0)
(1.08715 0.0011734 0)
(1.08718 0.00201057 0)
(1.08715 0.00298647 0)
(1.08707 0.00410515 0)
(1.08699 0.00536195 0)
(1.08695 0.00678298 0)
(1.08697 0.00837791 0)
(1.08705 0.0101353 0)
(1.0872 0.012083 0)
(1.08745 0.0142412 0)
(1.08776 0.0166206 0)
(1.08813 0.0192333 0)
(1.08855 0.0221132 0)
(1.08895 0.025279 0)
(1.08932 0.0287876 0)
(1.08961 0.0326601 0)
(1.08973 0.0369541 0)
(1.0896 0.0417063 0)
(1.08915 0.0470233 0)
(1.08817 0.0529093 0)
(1.08661 0.0595757 0)
(1.08429 0.0670568 0)
(1.08095 0.0754418 0)
(1.0764 0.0848704 0)
(1.07063 0.095691 0)
(1.06339 0.107576 0)
(1.05552 0.121907 0)
(1.04596 0.136824 0)
(1.03396 0.15441 0)
(1.02303 0.174621 0)
(1.06838 -0.00114543 0)
(1.07551 8.88252e-06 0)
(1.07953 -0.00145221 0)
(1.08206 -0.000405014 0)
(1.08419 -0.00120586 0)
(1.08536 -0.000565701 0)
(1.08641 -0.000580533 0)
(1.08696 6.15679e-06 0)
(1.08738 0.000519561 0)
(1.08761 0.00124832 0)
(1.08771 0.0020905 0)
(1.08774 0.00307232 0)
(1.08774 0.0042002 0)
(1.08775 0.00546919 0)
(1.08779 0.0068967 0)
(1.0879 0.00850161 0)
(1.08809 0.0102805 0)
(1.08835 0.0122463 0)
(1.0887 0.0144322 0)
(1.08913 0.016844 0)
(1.08963 0.019501 0)
(1.09019 0.0224178 0)
(1.09077 0.0256457 0)
(1.09132 0.0291929 0)
(1.09181 0.0331254 0)
(1.0922 0.0374788 0)
(1.09233 0.0423177 0)
(1.09218 0.0477075 0)
(1.0916 0.0537583 0)
(1.09039 0.060494 0)
(1.08852 0.0681797 0)
(1.08571 0.0767573 0)
(1.08177 0.0864746 0)
(1.07658 0.0975136 0)
(1.07044 0.110069 0)
(1.0625 0.123457 0)
(1.05399 0.139682 0)
(1.04499 0.155689 0)
(1.03761 0.175229 0)
(1.06792 -0.00116385 0)
(1.07509 -3.98118e-05 0)
(1.07919 -0.00146501 0)
(1.08191 -0.000352541 0)
(1.08424 -0.00113333 0)
(1.0855 -0.000471137 0)
(1.08664 -0.000525282 0)
(1.08723 6.53244e-05 0)
(1.08772 0.00054157 0)
(1.088 0.00126801 0)
(1.08816 0.00210644 0)
(1.08825 0.00308277 0)
(1.08833 0.00420826 0)
(1.08842 0.0054817 0)
(1.08853 0.00691347 0)
(1.08873 0.0085234 0)
(1.089 0.0103165 0)
(1.08936 0.012304 0)
(1.08981 0.0145024 0)
(1.09036 0.016935 0)
(1.091 0.0196096 0)
(1.0917 0.0225606 0)
(1.09243 0.0258137 0)
(1.09317 0.0294197 0)
(1.09384 0.0333874 0)
(1.09444 0.0378214 0)
(1.09485 0.042735 0)
(1.09497 0.0482196 0)
(1.09472 0.0543437 0)
(1.09394 0.0612543 0)
(1.09248 0.0690166 0)
(1.0902 0.0777954 0)
(1.08693 0.0876963 0)
(1.08249 0.0989774 0)
(1.07667 0.111565 0)
(1.07058 0.126686 0)
(1.06259 0.142873 0)
(1.05384 0.16285 0)
(1.04308 0.18406 0)
(1.06771 -0.0011672 0)
(1.07485 -6.16253e-05 0)
(1.07894 -0.00148768 0)
(1.08178 -0.000342162 0)
(1.08428 -0.00107214 0)
(1.08567 -0.000353562 0)
(1.08692 -0.000419837 0)
(1.08757 0.000193863 0)
(1.08813 0.00063484 0)
(1.08848 0.00136665 0)
(1.08871 0.00220458 0)
(1.08888 0.00317796 0)
(1.08903 0.00430029 0)
(1.08921 0.00558126 0)
(1.08942 0.00701951 0)
(1.08971 0.00863043 0)
(1.09009 0.0104313 0)
(1.09057 0.0124312 0)
(1.09114 0.0146509 0)
(1.09181 0.0170954 0)
(1.09259 0.0198001 0)
(1.09345 0.0227789 0)
(1.09435 0.0260774 0)
(1.09528 0.0297103 0)
(1.09619 0.0337271 0)
(1.09702 0.0381735 0)
(1.09774 0.0431546 0)
(1.09821 0.0486866 0)
(1.09832 0.0549003 0)
(1.09799 0.0618544 0)
(1.09706 0.0697788 0)
(1.09527 0.0786428 0)
(1.09251 0.0887194 0)
(1.08881 0.10036 0)
(1.08425 0.113508 0)
(1.07825 0.127877 0)
(1.07189 0.144835 0)
(1.06351 0.161182 0)
(1.05843 0.181923 0)
(1.06751 -0.00112498 0)
(1.07466 -1.82664e-05 0)
(1.07871 -0.00150354 0)
(1.08158 -0.000394084 0)
(1.08419 -0.00110174 0)
(1.0857 -0.000329929 0)
(1.08706 -0.000401542 0)
(1.08779 0.000236807 0)
(1.08843 0.000641205 0)
(1.08884 0.00137278 0)
(1.08913 0.00219993 0)
(1.08937 0.00316107 0)
(1.0896 0.00426904 0)
(1.08986 0.00554095 0)
(1.09016 0.00697677 0)
(1.09052 0.00858176 0)
(1.09099 0.0103784 0)
(1.09156 0.0123812 0)
(1.09225 0.0146012 0)
(1.09304 0.0170536 0)
(1.09394 0.0197499 0)
(1.09495 0.0227427 0)
(1.09601 0.0260379 0)
(1.09712 0.0296986 0)
(1.09823 0.0337297 0)
(1.09928 0.0382239 0)
(1.10024 0.0432224 0)
(1.10101 0.0488282 0)
(1.10147 0.055079 0)
(1.10149 0.0621305 0)
(1.10099 0.0701108 0)
(1.0998 0.0791749 0)
(1.09773 0.0893345 0)
(1.09488 0.100958 0)
(1.09099 0.114086 0)
(1.08648 0.129199 0)
(1.08046 0.146244 0)
(1.07503 0.167389 0)
(1.06683 0.18926 0)
(1.0675 -0.00106243 0)
(1.0747 8.74994e-05 0)
(1.07872 -0.0014293 0)
(1.08156 -0.000368061 0)
(1.08418 -0.00106898 0)
(1.08576 -0.000248558 0)
(1.08724 -0.000315611 0)
(1.08806 0.000366788 0)
(1.08879 0.00074239 0)
(1.08928 0.00148022 0)
(1.08965 0.00229629 0)
(1.08997 0.00324885 0)
(1.09028 0.00435011 0)
(1.09062 0.00561943 0)
(1.09102 0.00705598 0)
(1.09149 0.00865835 0)
(1.09207 0.0104514 0)
(1.09275 0.0124512 0)
(1.09357 0.0146743 0)
(1.09451 0.0171293 0)
(1.09555 0.0198413 0)
(1.0967 0.0228382 0)
(1.09794 0.0261661 0)
(1.09925 0.0298291 0)
(1.10058 0.033896 0)
(1.10188 0.0383854 0)
(1.10311 0.0434148 0)