/*--------------------------------*- C++ -*----------------------------------*\
| =========                 |                                                 |
| \\      /  F ield         | OpenFOAM: The Open Source CFD Toolbox           |
|  \\    /   O peration     | Version:  v2006                                 |
|   \\  /    A nd           | Website:  www.openfoam.com                      |
|    \\/     M anipulation  |                                                 |
\*---------------------------------------------------------------------------*/
FoamFile
{
    version     2.0;
    format      ascii;
    class       surfaceScalarField;
    location    "40";
    object      phi;
}
// * * * * * * * * * * * * * * * * * * * * * * * * * * * * * * * * * * * * * //

dimensions      [0 3 -1 0 0 0 0];
oriented        oriented;


internalField   nonuniform List<scalar> 
123832
(
6.15592e-05
0.0553574
7.71861e-05
0.0554449
7.86125e-05
0.0555196
8.11621e-05
0.0555549
8.34108e-05
0.0555716
8.52611e-05
0.0555705
8.7115e-05
0.0555535
8.90655e-05
0.0555242
9.12429e-05
0.055485
9.34924e-05
0.0554377
9.5722e-05
0.0553844
9.79719e-05
0.055327
0.000100305
0.0552669
0.000102485
0.055205
0.000104332
0.0551423
0.000105991
0.0550794
0.000107356
0.0550161
0.000108425
0.0549523
0.000109049
0.0548871
0.000109418
0.0548196
0.000109532
0.0547481
0.000109501
0.0546703
0.000109562
0.0545835
0.000109973
0.0544842
0.000110992
0.0543677
0.000112707
0.0542285
0.000115863
0.0540604
0.000121202
0.0538562
0.000128925
0.0536066
0.00014061
0.0533016
0.000155688
0.0529331
0.000174424
0.0524905
0.000200348
0.0519597
0.000234879
0.0513352
0.000276751
0.0506148
0.000329037
0.0497937
0.000377487
0.0488949
0.000391937
0.0479466
0.0469421
0.000367983
4.57084e-05
0.0553117
6.4553e-05
0.055426
6.96841e-05
0.0555145
7.58923e-05
0.0555487
7.84878e-05
0.055569
7.97464e-05
0.0555692
8.08583e-05
0.0555524
8.18877e-05
0.0555232
8.28131e-05
0.0554841
8.35822e-05
0.055437
8.41659e-05
0.0553839
8.45636e-05
0.0553266
8.4802e-05
0.0552667
8.47692e-05
0.055205
8.43851e-05
0.0551426
8.36758e-05
0.0550801
8.26228e-05
0.0550171
8.1162e-05
0.0549537
7.91905e-05
0.054889
7.6779e-05
0.054822
7.39247e-05
0.0547509
7.0653e-05
0.0546736
6.71294e-05
0.0545871
6.36481e-05
0.0544877
6.03164e-05
0.054371
5.75787e-05
0.0542313
5.55629e-05
0.0540624
5.54756e-05
0.0538563
5.68818e-05
0.0536052
5.96773e-05
0.0532989
6.65955e-05
0.0529262
7.89525e-05
0.0524781
9.55662e-05
0.0519431
0.000118681
0.0513121
0.000141245
0.0505923
0.000155869
0.049779
0.000193818
0.048857
0.000315935
0.0478245
0.0467716
0.00048648
3.38553e-05
0.0552779
5.24943e-05
0.0554074
6.22981e-05
0.0555047
6.95748e-05
0.0555414
7.25285e-05
0.0555661
7.35302e-05
0.0555682
7.39806e-05
0.055552
7.40053e-05
0.0555231
7.36329e-05
0.0554844
7.29364e-05
0.0554377
7.19428e-05
0.0553848
7.06549e-05
0.0553279
6.9054e-05
0.0552683
6.70515e-05
0.055207
6.45319e-05
0.0551452
6.15654e-05
0.055083
5.80565e-05
0.0550206
5.39614e-05
0.0549578
4.91903e-05
0.0548938
4.38437e-05
0.0548274
3.78695e-05
0.0547569
3.13495e-05
0.0546801
2.44312e-05
0.054594
1.72673e-05
0.0544949
9.96435e-06
0.0543783
2.73937e-06
0.0542385
-4.27836e-06
0.0540695
-1.07214e-05
0.0538627
-1.52997e-05
0.0536098
-1.85398e-05
0.0533021
-1.90873e-05
0.0529268
-1.59259e-05
0.052475
-1.10774e-05
0.0519383
-5.2371e-06
0.0513063
1.06047e-05
0.0505764
4.58041e-05
0.0497438
7.46238e-05
0.0488282
4.01982e-05
0.0478589
0.046851
-3.92746e-05
2.49418e-05
0.0552529
4.27381e-05
0.0553896
5.57404e-05
0.0554917
6.35855e-05
0.0555336
6.68958e-05
0.0555627
6.78079e-05
0.0555673
6.77407e-05
0.055552
6.69176e-05
0.055524
6.54364e-05
0.0554859
6.3422e-05
0.0554397
6.08866e-05
0.0553874
5.78481e-05
0.0553309
5.43226e-05
0.0552718
5.02574e-05
0.0552111
4.55586e-05
0.0551499
4.03242e-05
0.0550883
3.43725e-05
0.0550266
2.7715e-05
0.0549645
2.03028e-05
0.0549012
1.21568e-05
0.0548355
3.15162e-06
0.0547659
-6.541e-06
0.0546898
-1.70388e-05
0.0546045
-2.8202e-05
0.054506
-4.00047e-05
0.0543901
-5.2275e-05
0.0542508
-6.44537e-05
0.0540816
-7.66004e-05
0.0538749
-8.79181e-05
0.0536211
-9.87543e-05
0.0533129
-0.000109601
0.0529376
-0.00011805
0.0524834
-0.00012363
0.0519438
-0.000123378
0.051306
-0.00012518
0.0505782
-0.00013963
0.0497583
-0.000125699
0.0488142
-4.85321e-05
0.0477817
0.0467337
6.87759e-05
1.87777e-05
0.0552341
3.50809e-05
0.0553733
4.9641e-05
0.0554771
5.76917e-05
0.0555255
6.12785e-05
0.0555592
6.22227e-05
0.0555663
6.16516e-05
0.0555526
5.99036e-05
0.0555257
5.72543e-05
0.0554886
5.38989e-05
0.055443
4.98789e-05
0.0553914
4.52129e-05
0.0553356
3.98975e-05
0.0552771
3.38551e-05
0.0552171
2.71238e-05
0.0551566
1.96079e-05
0.0550958
1.12954e-05
0.0550349
2.10514e-06
0.0549737
-7.98688e-06
0.0549113
-1.91258e-05
0.0548467
-3.13258e-05
0.0547781
-4.45725e-05
0.054703
-5.8747e-05
0.0546186
-7.38245e-05
0.0545211
-8.97935e-05
0.0544061
-0.000106749
0.0542677
-0.000124045
0.0540989
-0.000142341
0.0538932
-0.000160918
0.0536397
-0.00017875
0.0533308
-0.000197023
0.0529559
-0.00021276
0.0524992
-0.000227728
0.0519588
-0.000247759
0.051326
-0.000258104
0.0505886
-0.000252253
0.0497524
-0.000254832
0.0488168
-0.000334116
0.047861
0.0468291
-0.000429496
1.55449e-05
0.0552186
2.99331e-05
0.0553589
4.43118e-05
0.0554627
5.2084e-05
0.0555177
5.55283e-05
0.0555557
5.67857e-05
0.0555651
5.58895e-05
0.0555535
5.33876e-05
0.0555282
4.97414e-05
0.0554922
4.51677e-05
0.0554476
3.97191e-05
0.0553968
3.34381e-05
0.0553419
2.63341e-05
0.0552842
1.83401e-05
0.0552251
9.52449e-06
0.0551654
-1.58519e-07
0.0551055
-1.08544e-05
0.0550456
-2.26014e-05
0.0549854
-3.54722e-05
0.0549242
-4.94881e-05
0.0548607
-6.47303e-05
0.0547934
-8.12821e-05
0.0547196
-9.91154e-05
0.0546365
-0.000118295
0.0545403
-0.00013874
0.0544265
-0.000160804
0.0542898
-0.000183906
0.054122
-0.000207749
0.053917
-0.000233301
0.0536653
-0.000258509
0.053356
-0.000284976
0.0529823
-0.000313735
0.0525279
-0.000338819
0.0519839
-0.00036246
0.0513497
-0.000388927
0.0506151
-0.000414686
0.0497782
-0.000439264
0.0488414
-0.000403701
0.0478254
0.0467506
-0.000325178
1.53234e-05
0.0552033
2.73863e-05
0.0553469
4.0139e-05
0.05545
4.72175e-05
0.0555107
5.02001e-05
0.0555527
5.16259e-05
0.0555637
5.06039e-05
0.0555545
4.73221e-05
0.0555315
4.26554e-05
0.0554969
3.6867e-05
0.0554534
3.00375e-05
0.0554037
2.2205e-05
0.0553497
1.33249e-05
0.0552931
3.4729e-06
0.055235
-7.28984e-06
0.0551762
-1.91658e-05
0.0551174
-3.21778e-05
0.0550586
-4.64062e-05
0.0549996
-6.19963e-05
0.0549398
-7.8989e-05
0.0548777
-9.74438e-05
0.0548118
-0.000117579
0.0547397
-0.000139177
0.0546581
-0.000162503
0.0545636
-0.000187217
0.0544513
-0.000213712
0.0543163
-0.000242505
0.0541508
-0.000272193
0.0539467
-0.000304512
0.0536976
-0.000338333
0.0533898
-0.000371458
0.0530155
-0.0004078
0.0525643
-0.000446229
0.0520223
-0.000487474
0.0513909
-0.000528463
0.050656
-0.000561549
0.0498113
-0.000603637
0.0488835
-0.000704066
0.0479259
0.0469036
-0.000857128
1.84485e-05
0.0551848
2.69279e-05
0.0553384
3.68357e-05
0.0554401
4.27325e-05
0.0555048
4.55526e-05
0.0555499
4.66636e-05
0.0555625
4.52933e-05
0.0555559
4.14188e-05
0.0555354
3.5891e-05
0.0555024
2.89921e-05
0.0554603
2.08657e-05
0.0554118
1.15633e-05
0.055359
1.05585e-06
0.0553036
-1.04792e-05
0.0552465
-2.32667e-05
0.055189
-3.73281e-05
0.0551314
-5.27338e-05
0.055074
-6.95519e-05
0.0550165
-8.78947e-05
0.0549581
-0.000107759
0.0548975
-0.000129237
0.0548333
-0.000152648
0.0547631
-0.000177923
0.0546834
-0.000205179
0.0545909
-0.000234742
0.0544808
-0.000266127
0.0543477
-0.000300581
0.0541853
-0.00033703
0.0539832
-0.000374721
0.0537353
-0.000416102
0.0534312
-0.000459081
0.0530584
-0.000505757
0.0526109
-0.000556246
0.0520728
-0.000602843
0.0514375
-0.00064514
0.0506983
-0.000694666
0.0498608
-0.000759287
0.0489481
-0.000783803
0.0479504
0.0468693
-0.00074948
2.18411e-05
0.055163
2.85424e-05
0.0553317
3.52082e-05
0.0554334
3.97398e-05
0.0555002
4.22207e-05
0.0555474
4.28244e-05
0.0555619
4.0739e-05
0.055558
3.62425e-05
0.0555399
2.98526e-05
0.0555088
2.1882e-05
0.0554683
1.2481e-05
0.0554212
1.62891e-06
0.0553698
-1.04336e-05
0.0553157
-2.38487e-05
0.0552599
-3.86018e-05
0.0552037
-5.47208e-05
0.0551475
-7.23296e-05
0.0550916
-9.15584e-05
0.0550357
-0.000112467
0.054979
-0.000135309
0.0549204
-0.000159973
0.054858
-0.000186795
0.0547899
-0.000216048
0.0547126
-0.000247342
0.0546221
-0.000281249
0.0545147
-0.00031748
0.0543839
-0.000356414
0.0542242
-0.000399196
0.0540259
-0.000444282
0.0537804
-0.00049359
0.0534805
-0.000546827
0.0531117
-0.000602054
0.0526662
-0.000660642
0.0521314
-0.0007226
0.0514995
-0.000794933
0.0507707
-0.000877161
0.049943
-0.000959072
0.04903
-0.00106774
0.048059
0.0470552
-0.00125358
2.44514e-05
0.0551385
3.05747e-05
0.0553255
3.41403e-05
0.0554298
3.71619e-05
0.0554972
3.90817e-05
0.0555455
3.89944e-05
0.055562
3.60505e-05
0.0555609
3.10152e-05
0.0555449
2.39319e-05
0.0555159
1.49881e-05
0.0554772
4.41803e-06
0.0554318
-7.67428e-06
0.0553819
-2.12275e-05
0.0553292
-3.628e-05
0.055275
-5.29001e-05
0.0552203
-7.11113e-05
0.0551657
-9.10679e-05
0.0551116
-0.000112789
0.0550574
-0.000136433
0.0550027
-0.000162111
0.0549461
-0.000189902
0.0548858
-0.000219883
0.0548199
-0.000252743
0.0547455
-0.000288065
0.0546575
-0.000326315
0.054553
-0.00036788
0.0544255
-0.000412563
0.0542689
-0.000461985
0.0540754
-0.000514849
0.0538332
-0.000571068
0.0535367
-0.000631602
0.0531722
-0.000695095
0.0527297
-0.000765502
0.0522018
-0.0008403
0.0515743
-0.000912288
0.0508427
-0.000987357
0.0500181
-0.00107708
0.0491197
-0.00114811
0.0481301
0.0470656
-0.00115857
2.53091e-05
0.0551132
3.31816e-05
0.0553177
3.471e-05
0.0554283
3.63574e-05
0.0554956
3.74299e-05
0.0555444
3.63873e-05
0.0555631
3.25785e-05
0.0555647
2.65672e-05
0.0555509
1.87227e-05
0.0555237
8.90412e-06
0.055487
-2.88239e-06
0.0554436
-1.63228e-05
0.0553954
-3.1456e-05
0.0553443
-4.82504e-05
0.0552918
-6.67451e-05
0.0552388
-8.69684e-05
0.055186
-0.000108987
0.0551336
-0.00013301
0.0550814
-0.000159114
0.0550288
-0.000187547
0.0549745
-0.000218517
0.0549167
-0.00025181
0.0548532
-0.000288282
0.0547819
-0.000328139
0.0546973
-0.000370802
0.0545956
-0.000417379
0.054472
-0.000467332
0.0543189
-0.000521961
0.05413
-0.00058117
0.0538924
-0.000644135
0.0535997
-0.000714046
0.0532421
-0.000789726
0.0528053
-0.000871346
0.0522834
-0.000959528
0.0516625
-0.00105952
0.0509427
-0.00117524
0.0501338
-0.00129204
0.0492365
-0.00142907
0.0482671
0.0472721
-0.00163554
2.54897e-05
0.0550877
3.44453e-05
0.0553087
3.51529e-05
0.0554276
3.56403e-05
0.0554951
3.57702e-05
0.0555443
3.37767e-05
0.0555651
2.9209e-05
0.0555693
2.24668e-05
0.0555577
1.37912e-05
0.0555324
3.04926e-06
0.0554978
-9.68777e-06
0.0554563
-2.43474e-05
0.05541
-4.08045e-05
0.0553608
-5.91401e-05
0.0553101
-7.9373e-05
0.0552591
-0.00010157
0.0552082
-0.000125773
0.0551578
-0.000152269
0.0551079
-0.000181052
0.0550576
-0.000212287
0.0550057
-0.000246384
0.0549508
-0.000283143
0.05489
-0.000322905
0.0548217
-0.000366751
0.0547412
-0.000413827
0.0546427
-0.000465209
0.0545234
-0.000521076
0.0543747
-0.000581294
0.0541902
-0.000648439
0.0539596
-0.000720755
0.053672
-0.000799604
0.053321
-0.000886414
0.0528921
-0.000978696
0.0523757
-0.00107802
0.0517618
-0.00117965
0.0510443
-0.00128301
0.0502372
-0.00139786
0.0493514
-0.00151339
0.0483826
0.0473567
-0.00159802
2.5079e-05
0.0550626
3.54604e-05
0.0552983
3.65774e-05
0.0554265
3.62357e-05
0.0554954
3.51677e-05
0.0555454
3.21012e-05
0.0555681
2.6512e-05
0.0555749
1.89317e-05
0.0555652
9.38533e-06
0.055542
-2.36986e-06
0.0555095
-1.62045e-05
0.0554701
-3.21056e-05
0.0554259
-5.00212e-05
0.0553787
-6.99911e-05
0.0553301
-9.20065e-05
0.0552811
-0.000116124
0.0552323
-0.000142403
0.0551841
-0.000171029
0.0551366
-0.000202288
0.0550888
-0.000236191
0.0550396
-0.000273164
0.0549878
-0.000313493
0.0549303
-0.00035678
0.054865
-0.00040444
0.0547888
-0.00045649
0.0546948
-0.000512524
0.0545795
-0.000574133
0.0544363
-0.000640625
0.0542567
-0.000713912
0.0540329
-0.000794245
0.0537523
-0.000880956
0.0534077
-0.000975622
0.0529868
-0.0010776
0.0524777
-0.00118701
0.0518712
-0.00131065
0.0511679
-0.00145716
0.0503837
-0.00161623
0.0495104
-0.00179278
0.0485592
0.0475491
-0.00198516
2.33892e-05
0.0550393
3.48261e-05
0.0552869
3.73107e-05
0.055424
3.68119e-05
0.0554959
3.47794e-05
0.0555474
3.09444e-05
0.055572
2.44182e-05
0.0555814
1.61557e-05
0.0555735
5.77983e-06
0.0555523
-6.88735e-06
0.0555222
-2.17475e-05
0.055485
-3.87212e-05
0.0554429
-5.78647e-05
0.0553979
-7.92525e-05
0.0553515
-0.000102844
0.0553047
-0.000128731
0.0552582
-0.000157069
0.0552124
-0.000187966
0.0551674
-0.000221753
0.0551226
-0.000258499
0.0550764
-0.000298403
0.0550277
-0.000342044
0.0549739
-0.000389016
0.054912
-0.000440156
0.05484
-0.000496839
0.0547515
-0.000557875
0.0546405
-0.000624638
0.0545031
-0.000697881
0.0543299
-0.000777986
0.054113
-0.000866224
0.0538406
-0.000962772
0.0535042
-0.00106863
0.0530927
-0.00118416
0.0525932
-0.00131216
0.0519992
-0.00145166
0.0513074
-0.00159431
0.0505264
-0.00173814
0.0496543
-0.00188313
0.0487042
0.047717
-0.00205102
2.15026e-05
0.0550178
3.36829e-05
0.0552747
3.78615e-05
0.0554198
3.75927e-05
0.0554962
3.45635e-05
0.0555504
2.9666e-05
0.0555769
2.23155e-05
0.0555888
1.32714e-05
0.0555825
1.97497e-06
0.0555636
-1.15993e-05
0.0555358
-2.75205e-05
0.0555009
-4.56678e-05
0.0554611
-6.61492e-05
0.0554183
-8.90039e-05
0.0553743
-0.00011423
0.0553299
-0.000141935
0.0552859
-0.000172335
0.0552428
-0.000205458
0.0552006
-0.000241531
0.0551587
-0.000280875
0.0551157
-0.00032349
0.0550703
-0.000370235
0.0550207
-0.000421193
0.0549629
-0.000476005
0.0548948
-0.00053684
0.0548123
-0.00060339
0.054707
-0.000675523
0.0545752
-0.000754888
0.0544093
-0.00084186
0.0541999
-0.000937704
0.0539364
-0.00104227
0.0536088
-0.00115697
0.0532074
-0.00128179
0.052718
-0.00141628
0.0521337
-0.001562
0.0514531
-0.00172397
0.0506883
-0.00191238
0.0498427
-0.00213172
0.0489235
0.0479193
-0.00233404
1.91049e-05
0.0549986
3.15542e-05
0.0552623
3.76173e-05
0.0554138
3.82324e-05
0.0554956
3.47985e-05
0.0555539
2.92278e-05
0.0555824
2.14399e-05
0.0555966
1.17542e-05
0.0555922
-3.56472e-07
0.0555757
-1.48322e-05
0.0555503
-3.16613e-05
0.0555177
-5.08854e-05
0.0554803
-7.25508e-05
0.05544
-9.66593e-05
0.0553984
-0.000123321
0.0553566
-0.000152648
0.0553152
-0.000184876
0.055275
-0.000220097
0.0552358
-0.000258455
0.055197
-0.000300414
0.0551577
-0.000346015
0.0551159
-0.000395765
0.0550704
-0.000450337
0.0550175
-0.000509219
0.0549537
-0.000573561
0.0548766
-0.000645042
0.0547785
-0.000722752
0.0546529
-0.000808005
0.0544946
-0.000901726
0.0542937
-0.00100495
0.0540396
-0.00111906
0.0537229
-0.00124489
0.0533332
-0.00138327
0.0528564
-0.00153565
0.0522861
-0.00170607
0.0516236
-0.00189091
0.0508732
-0.00208085
0.0500326
-0.00227553
0.0491182
0.0481606
-0.00251679
1.71624e-05
0.0549815
2.91239e-05
0.0552503
3.62854e-05
0.0554066
3.76534e-05
0.0554942
3.39575e-05
0.0555576
2.77443e-05
0.0555886
1.94221e-05
0.0556049
9.05227e-06
0.0556026
-3.83233e-06
0.0555886
-1.91736e-05
0.0555656
-3.68887e-05
0.0555355
-5.71627e-05
0.0555006
-8.00295e-05
0.0554629
-0.000105436
0.0554238
-0.000133638
0.0553848
-0.000164752
0.0553463
-0.000198918
0.0553092
-0.0002363
0.0552732
-0.000276853
0.0552376
-0.000321244
0.0552021
-0.00036979
0.0551645
-0.000422401
0.055123
-0.000480265
0.0550754
-0.000543381
0.0550168
-0.000611844
0.0549451
-0.000687858
0.0548545
-0.000771213
0.0547363
-0.000862419
0.0545858
-0.000963338
0.0543946
-0.00107482
0.0541511
-0.00119749
0.0538456
-0.0013319
0.0534676
-0.00147866
0.0530032
-0.00163845
0.0524459
-0.00180998
0.0517951
-0.0019958
0.051059
-0.00221401
0.0502508
-0.00246566
0.0493698
0.0484038
-0.00270886
1.60803e-05
0.0549654
2.74102e-05
0.055239
3.51735e-05
0.0553988
3.74485e-05
0.0554919
3.40648e-05
0.0555609
2.77843e-05
0.0555949
1.92149e-05
0.0556134
8.29756e-06
0.0556135
-5.22999e-06
0.0556022
-2.13147e-05
0.0555817
-3.98775e-05
0.055554
-6.11036e-05
0.0555218
-8.5042e-05
0.0554868
-0.000111658
0.0554505
-0.000141126
0.0554142
-0.000173714
0.0553789
-0.000209424
0.0553449
-0.000248625
0.0553124
-0.000291355
0.0552803
-0.000338034
0.0552488
-0.000389285
0.0552157
-0.000444943
0.0551787
-0.000505884
0.0551363
-0.000572847
0.0550837
-0.000645446
0.0550177
-0.000725326
0.0549344
-0.000814309
0.0548253
-0.00091165
0.0546831
-0.00101894
0.0545019
-0.0011378
0.05427
-0.00126761
0.0539754
-0.001411
0.053611
-0.00157041
0.0531626
-0.00174735
0.0526228
-0.00194717
0.0519949
-0.0021731
0.0512849
-0.00241495
0.0504927
-0.00266347
0.0496184
0.0486861
-0.00294575
1.58648e-05
0.0549495
2.58335e-05
0.055229
3.29193e-05
0.0553917
3.53996e-05
0.0554894
3.22982e-05
0.055564
2.5975e-05
0.0556013
1.70714e-05
0.0556224
5.67815e-06
0.0556249
-8.42534e-06
0.0556163
-2.51746e-05
0.0555984
-4.45163e-05
0.0555734
-6.65878e-05
0.0555439
-9.15255e-05
0.0555117
-0.000119319
0.0554783
-0.000150183
0.0554451
-0.000184429
0.0554131
-0.000221927
0.0553824
-0.000263042
0.0553535
-0.000308105
0.0553254
-0.000357003
0.0552977
-0.000410688
0.0552694
-0.00046935
0.0552374
-0.000533198
0.0552001
-0.000603768
0.0551543
-0.000680959
0.0550949
-0.00076533
0.0550188
-0.000859008
0.054919
-0.000962451
0.0547865
-0.00107584
0.0546152
-0.00120179
0.0543959
-0.00134109
0.0541147
-0.00149452
0.0537644
-0.00166577
0.0533338
-0.00185524
0.0528123
-0.00205982
0.0521995
-0.0022763
0.0515014
-0.00251756
0.0507339
-0.00278079
0.0498816
0.0489975
-0.00309227
1.69117e-05
0.0549326
2.61988e-05
0.0552197
3.23048e-05
0.0553856
3.47923e-05
0.055487
3.20561e-05
0.0555668
2.60366e-05
0.0556073
1.69278e-05
0.0556315
5.27277e-06
0.0556366
-9.30014e-06
0.0556308
-2.66244e-05
0.0556158
-4.66891e-05
0.0555934
-6.95903e-05
0.0555668
-9.54324e-05
0.0555376
-0.00012432
0.0555071
-0.000156299
0.0554771
-0.000191756
0.0554486
-0.000230729
0.0554214
-0.000273309
0.0553961
-0.000320236
0.0553723
-0.000371399
0.0553488
-0.000427288
0.0553253
-0.000488892
0.055299
-0.000555914
0.0552672
-0.000629542
0.0552279
-0.000710687
0.055176
-0.000799281
0.0551074
-0.000897266
0.0550169
-0.00100602
0.0548953
-0.00112618
0.0547354
-0.00125901
0.0545287
-0.00140673
0.0542624
-0.0015697
0.0539274
-0.0017513
0.0535154
-0.00195309
0.0530141
-0.0021771
0.0524235
-0.00243336
0.0517576
-0.00272092
0.0510215
-0.00303282
0.0501935
0.0493115
-0.00334677
1.74885e-05
0.0549151
2.61656e-05
0.055211
3.0991e-05
0.0553808
3.27836e-05
0.0554852
3.00258e-05
0.0555695
2.40668e-05
0.0556132
1.48467e-05
0.0556407
2.86167e-06
0.0556486
-1.21896e-05
0.0556459
-3.0018e-05
0.0556336
-5.07567e-05
0.0556142
-7.43719e-05
0.0555904
-0.000100983
0.0555642
-0.000130894
0.0555371
-0.000164179
0.0555104
-0.000200989
0.0554854
-0.000241609
0.055462
-0.000285959
0.0554404
-0.000334802
0.0554212
-0.000388289
0.0554023
-0.000446462
0.0553835
-0.000510494
0.055363
-0.000580494
0.0553372
-0.000657287
0.0553047
-0.000742088
0.0552608
-0.000835283
0.0552006
-0.000937856
0.0551195
-0.00105193
0.0550094
-0.0011783
0.0548618
-0.00131856
0.054669
-0.00147488
0.0544187
-0.00164822
0.0541007
-0.00184099
0.0537082
-0.00205655
0.0532296
-0.00229475
0.0526617
-0.0025487
0.0520116
-0.00282264
0.0512954
-0.00311497
0.0504858
0.0497073
-0.00351074
1.8542e-05
0.0548966
2.76021e-05
0.055202
3.18403e-05
0.0553766
3.29942e-05
0.055484
2.98738e-05
0.0555727
2.39279e-05
0.0556192
1.45987e-05
0.05565
2.36825e-06
0.0556608
-1.30153e-05
0.0556613
-3.12705e-05
0.0556518
-5.25557e-05
0.0556355
-7.68795e-05
0.0556147
-0.000104244
0.0555916
-0.000135066
0.0555679
-0.000169419
0.0555447
-0.000207238
0.0555232
-0.000249042
0.0555038
-0.000294915
0.0554863
-0.000345254
0.0554715
-0.000400764
0.0554578
-0.000461207
0.0554439
-0.000527458
0.0554293
-0.000600571
0.0554103
-0.000680379
0.0553845
-0.000768671
0.0553491
-0.000865853
0.0552978
-0.000972882
0.0552265
-0.0010919
0.0551284
-0.00122441
0.0549943
-0.00137118
0.0548158
-0.00153496
0.0545825
-0.00171756
0.0542833
-0.00192062
0.0539113
-0.00214676
0.0534558
-0.00239772
0.0529127
-0.00268299
0.0522969
-0.00300511
0.0516176
-0.00337326
0.050854
0.0500295
-0.00369546
1.81564e-05
0.0548784
2.73679e-05
0.0551928
3.18069e-05
0.0553721
3.25165e-05
0.0554833
2.89101e-05
0.0555763
2.26207e-05
0.0556255
1.29909e-05
0.0556596
4.02915e-07
0.0556734
-1.53572e-05
0.055677
-3.41024e-05
0.0556706
-5.58985e-05
0.0556572
-8.08127e-05
0.0556396
-0.00010884
0.0556196
-0.000140459
0.0555995
-0.000175872
0.0555801
-0.000214821
0.0555622
-0.000257898
0.0555469
-0.000305479
0.0555339
-0.000357461
0.0555235
-0.000414817
0.0555152
-0.000477427
0.0555065
-0.000545908
0.0554977
-0.000621479
0.0554858
-0.000704352
0.0554674
-0.000795705
0.0554405
-0.000896965
0.055399
-0.0010087
0.0553383
-0.00113258
0.0552523
-0.00127048
0.0551322
-0.00142417
0.0549695
-0.00159578
0.0547541
-0.00178844
0.054476
-0.00200386
0.0541267
-0.00224398
0.0536959
-0.00251291
0.0531816
-0.00280823
0.0525922
-0.00312473
0.0519341
-0.00345317
0.0511824
0.0504923
-0.00391604
1.73877e-05
0.0548611
2.68646e-05
0.0551833
3.22274e-05
0.0553668
3.31528e-05
0.0554824
2.92307e-05
0.0555802
2.26588e-05
0.055632
1.26346e-05
0.0556697
-1.16797e-07
0.0556861
-1.61579e-05
0.0556931
-3.52047e-05
0.0556896
-5.73516e-05
0.0556794
-8.27969e-05
0.0556651
-0.000111579
0.0556484
-0.000143885
0.0556318
-0.000180127
0.0556164
-0.000220143
0.0556022
-0.000264195
0.0555909
-0.000313048
0.0555827
-0.000366497
0.0555769
-0.000425233
0.0555739
-0.000490047
0.0555713
-0.000560697
0.0555684
-0.000638732
0.0555639
-0.000724735
0.0555534
-0.000819233
0.055535
-0.000923791
0.0555036
-0.00103989
0.0554544
-0.0011684
0.0553808
-0.00131161
0.0552754
-0.00147161
0.0551295
-0.00165134
0.0549339
-0.00185212
0.0546768
-0.00207671
0.0543513
-0.00232717
0.0539464
-0.00260414
0.0534586
-0.00291431
0.0529023
-0.00326224
0.052282
-0.00367603
0.0515962
0.0508764
-0.0040601
1.53345e-05
0.0548457
2.4592e-05
0.055174
3.10156e-05
0.0553603
3.26171e-05
0.0554808
2.88494e-05
0.055584
2.20527e-05
0.0556388
1.15815e-05
0.0556801
-1.56149e-06
0.0556993
-1.79899e-05
0.0557095
-3.74123e-05
0.0557091
-5.99276e-05
0.0557019
-8.58137e-05
0.0556909
-0.000115231
0.0556778
-0.000148153
0.0556647
-0.00018502
0.0556532
-0.000226021
0.0556432
-0.00027114
0.0556361
-0.000321176
0.0556328
-0.000376262
0.055632
-0.000436414
0.0556341
-0.000502883
0.0556378
-0.000575741
0.0556412
-0.000655701
0.0556438
-0.000744041
0.0556418
-0.0008413
0.0556322
-0.000949234
0.0556115
-0.00106909
0.0555742
-0.00120229
0.055514
-0.00135063
0.0554238
-0.00151683
0.0552957
-0.00170291
0.0551199
-0.00191273
0.0548866
-0.00214653
0.0545851
-0.00240878
0.0542086
-0.00270391
0.0537537
-0.00303798
0.0532364
-0.00340614
0.0526501
-0.0037868
0.0519769
0.0513445
-0.00425486
1.35965e-05
0.0548321
2.20696e-05
0.0551656
2.87112e-05
0.0553537
3.10198e-05
0.0554785
2.79629e-05
0.055587
2.14534e-05
0.0556453
1.0829e-05
0.0556908
-2.38216e-06
0.0557125
-1.88971e-05
0.055726
-3.8468e-05
0.0557286
-6.12067e-05
0.0557247
-8.74308e-05
0.0557172
-0.000117393
0.0557078
-0.000150963
0.0556983
-0.000188437
0.0556907
-0.000230256
0.055685
-0.000276426
0.0556822
-0.000327409
0.0556837
-0.000383733
0.0556883
-0.000445324
0.0556956
-0.00051319
0.0557057
-0.000588077
0.0557161
-0.000670284
0.055726
-0.000761109
0.0557326
-0.000861355
0.0557325
-0.000972246
0.0557224
-0.00109552
0.0556975
-0.00123297
0.0556514
-0.00138605
0.0555768
-0.00155775
0.0554673
-0.00175074
0.0553129
-0.00196689
0.0551027
-0.00221051
0.0548287
-0.00248304
0.0544811
-0.00279174
0.0540624
-0.00313162
0.0535763
-0.0035094
0.0530279
-0.00395365
0.0524211
0.0518204
-0.00442963
1.30033e-05
0.0548191
2.02949e-05
0.0551583
2.60745e-05
0.0553479
2.85254e-05
0.055476
2.63256e-05
0.0555892
2.03741e-05
0.0556513
9.75259e-06
0.0557014
-3.63234e-06
0.0557259
-2.04171e-05
0.0557428
-4.02467e-05
0.0557485
-6.33457e-05
0.0557477
-8.98978e-05
0.0557437
-0.000120216
0.0557381
-0.000154333
0.0557324
-0.000192208
0.0557286
-0.000234625
0.0557274
-0.000281729
0.0557293
-0.000333591
0.0557356
-0.000390917
0.0557457
-0.000453945
0.0557587
-0.000523129
0.0557748
-0.000599638
0.0557926
-0.000683681
0.0558101
-0.000776215
0.0558251
-0.000878749
0.055835
-0.000992401
0.0558361
-0.00111858
0.0558237
-0.00125977
0.0557926
-0.00141741
0.0557345
-0.00159382
0.0556438
-0.00179248
0.0555116
-0.00201644
0.0553267
-0.0022671
0.0550794
-0.00255059
0.0547646
-0.0028665
0.0543783
-0.00322913
0.0539389
-0.00363148
0.0534303
-0.00405947
0.0528491
0.0522938
-0.00453286
1.3499e-05
0.0548056
1.93573e-05
0.0551524
2.32931e-05
0.055344
2.51494e-05
0.0554742
2.37415e-05
0.0555906
1.87068e-05
0.0556563
8.61728e-06
0.0557115
-4.44428e-06
0.0557389
-2.10898e-05
0.0557594
-4.08166e-05
0.0557682
-6.40864e-05
0.055771
-9.08009e-05
0.0557704
-0.000121347
0.0557686
-0.000155895
0.055767
-0.000194321
0.055767
-0.000237211
0.0557703
-0.00028506
0.0557772
-0.000337711
0.0557883
-0.000395758
0.0558037
-0.000459829
0.0558227
-0.00053029
0.0558453
-0.00060801
0.0558704
-0.000693791
0.0558959
-0.000788484
0.0559198
-0.000893149
0.0559397
-0.00100953
0.0559524
-0.0011386
0.0559527
-0.00128257
0.0559366
-0.00144451
0.0558964
-0.00162573
0.055825
-0.00182965
0.0557155
-0.00205953
0.0555566
-0.00231901
0.0553388
-0.00261126
0.0550569
-0.00294952
0.0547166
-0.00332496
0.0543144
-0.00374622
0.0538515
-0.00422776
0.0533306
0.0528391
-0.00477306
1.42593e-05
0.0547914
2.0153e-05
0.0551465
2.19684e-05
0.0553422
2.24021e-05
0.0554737
2.08418e-05
0.0555922
1.62066e-05
0.055661
6.55035e-06
0.0557211
-6.30462e-06
0.0557518
-2.29508e-05
0.0557761
-4.27327e-05
0.055788
-6.61879e-05
0.0557945
-9.31045e-05
0.0557973
-0.000123838
0.0557994
-0.000158661
0.0558018
-0.000197455
0.0558058
-0.00024071
0.0558136
-0.000288981
0.0558255
-0.000342279
0.0558416
-0.000401032
0.0558625
-0.00046605
0.0558878
-0.000537694
0.0559169
-0.00061655
0.0559492
-0.000703531
0.0559829
-0.000799721
0.056016
-0.000905912
0.0560459
-0.00102392
0.0560705
-0.00115545
0.0560843
-0.00130218
0.0560833
-0.00146681
0.056061
-0.00165222
0.0560104
-0.00186114
0.0559244
-0.0020967
0.0557921
-0.00236345
0.0556056
-0.00266634
0.0553598
-0.00300077
0.055051
-0.00338121
0.0546948
-0.00379614
0.0542665
-0.00425064
0.0537851
0.0533189
-0.00473044
1.46722e-05
0.0547767
2.09014e-05
0.0551403
2.16267e-05
0.0553414
2.08778e-05
0.0554745
1.87079e-05
0.0555944
1.42297e-05
0.0556654
5.1223e-06
0.0557302
-7.25893e-06
0.0557642
-2.35229e-05
0.0557924
-4.31683e-05
0.0558076
-6.64754e-05
0.0558178
-9.33907e-05
0.0558243
-0.000124097
0.0558301
-0.000158932
0.0558366
-0.000198009
0.0558449
-0.000241567
0.0558571
-0.000290155
0.055874
-0.000343832
0.0558952
-0.000403118
0.0559217
-0.000468651
0.0559533
-0.000540958
0.0559893
-0.000620621
0.0560289
-0.000708445
0.0560707
-0.000805894
0.0561135
-0.00091389
0.0561539
-0.00103358
0.0561901
-0.00116726
0.0562179
-0.00131635
0.0562324
-0.00148396
0.0562287
-0.00167259
0.056199
-0.00188539
0.0561372
-0.00212621
0.056033
-0.00239774
0.0558771
-0.00270499
0.055667
-0.00306036
0.0554064
-0.00346169
0.0550961
-0.00393039
0.0547352
-0.00445987
0.0543146
0.0539283
-0.00506929
1.4686e-05
0.054762
2.1332e-05
0.0551337
2.19069e-05
0.0553409
2.00549e-05
0.0554763
1.64858e-05
0.0555979
1.12611e-05
0.0556707
2.33074e-06
0.0557392
-9.96926e-06
0.0557765
-2.60716e-05
0.0558085
-4.5678e-05
0.0558272
-6.88865e-05
0.055841
-9.58553e-05
0.0558512
-0.000126623
0.0558608
-0.000161437
0.0558714
-0.00020073
0.0558842
-0.000244513
0.0559009
-0.000293247
0.0559228
-0.000347298
0.0559493
-0.000407044
0.0559815
-0.00047321
0.0560195
-0.000546246
0.0560623
-0.000626787
0.0561094
-0.000715544
0.0561594
-0.000813694
0.0562116
-0.000922823
0.056263
-0.00104367
0.056311
-0.00117851
0.0563528
-0.00132959
0.0563835
-0.00149897
0.056398
-0.00168971
0.0563898
-0.00190549
0.056353
-0.00215048
0.056278
-0.00242918
0.0561558
-0.00274683
0.0559847
-0.00310188
0.0557614
-0.00350067
0.0554949
-0.00393305
0.0551676
-0.00440792
0.0547895
0.0544134
-0.004893
1.34964e-05
0.0547485
2.08009e-05
0.0551263
2.2767e-05
0.0553389
2.12175e-05
0.0554779
1.65769e-05
0.0556026
1.07215e-05
0.0556765
1.63298e-06
0.0557483
-1.05581e-05
0.0557887
-2.63281e-05
0.0558242
-4.56896e-05
0.0558466
-6.85458e-05
0.0558638
-9.52899e-05
0.055878
-0.000125843
0.0558914
-0.00016035
0.0559059
-0.000199474
0.0559233
-0.000243235
0.0559447
-0.000291928
0.0559715
-0.000346061
0.0560034
-0.000405802
0.0560412
-0.000472003
0.0560857
-0.000545125
0.0561354
-0.000625779
0.0561901
-0.000714934
0.0562486
-0.000813576
0.0563102
-0.00092338
0.0563728
-0.00104527
0.0564329
-0.00118127
0.0564888
-0.00133352
0.0565357
-0.00150477
0.0565693
-0.00169795
0.0565829
-0.00191621
0.0565713
-0.0021642
0.0565259
-0.00244533
0.0564369
-0.0027633
0.0563026
-0.00312526
0.0561234
-0.00353623
0.0559059
-0.0040251
0.0556564
-0.00458584
0.0553502
0.055069
-0.0052414
1.14352e-05
0.0547371
1.83855e-05
0.0551194
2.1408e-05
0.0553359
2.04209e-05
0.0554789
1.52243e-05
0.0556078
8.44016e-06
0.0556833
-9.2527e-07
0.0557576
-1.34289e-05
0.0558012
-2.91253e-05
0.0558399
-4.82588e-05
0.0558657
-7.08938e-05
0.0558865
-9.74897e-05
0.0559046
-0.000127992
0.0559219
-0.000162438
0.0559404
-0.000201396
0.0559622
-0.00024516
0.0559884
-0.000293763
0.0560201
-0.00034786
0.0560575
-0.000407753
0.0561011
-0.000474073
0.056152
-0.000547568
0.0562089
-0.000628615
0.0562711
-0.000718328
0.0563383
-0.000817426
0.0564093
-0.000927397
0.0564828
-0.00104982
0.0565553
-0.00118643
0.0566254
-0.00133966
0.056689
-0.00151152
0.0567411
-0.00170573
0.0567772
-0.00192465
0.0567902
-0.00217353
0.0567748
-0.00245865
0.0567221
-0.00278397
0.056628
-0.00315588
0.0564953
-0.00357581
0.0563258
-0.00402902
0.0561096
-0.00453469
0.0558559
0.0555766
-0.0050423
9.73002e-06
0.0547273
1.63731e-05
0.0551128
2.03246e-05
0.0553319
2.05238e-05
0.0554787
1.56737e-05
0.0556126
8.94776e-06
0.05569
-7.25268e-07
0.0557673
-1.34107e-05
0.0558138
-2.89346e-05
0.0558554
-4.7803e-05
0.0558846
-7.01417e-05
0.0559088
-9.62884e-05
0.0559307
-0.000126309
0.0559519
-0.000160314
0.0559744
-0.000198725
0.0560007
-0.000242058
0.0560318
-0.000290279
0.0560683
-0.000343991
0.0561112
-0.000403633
0.0561608
-0.000469462
0.0562178